
  ___ ___ ___ _ _ _  
 |   |   |_  | | | | 
 | | | | | . | | | | 
 |__ |  _|___|_____|  0.9.1.11058M
 |___|_|             

User:  jensj@q011.dcsc.fysik.dtu.dk
Date:  Fri Feb 21 12:10:58 2014
Arch:  x86_64
Pid:   22971
Dir:   /home/niflheim/jensj/sprint2013/gpaw
ase:   /home/camp/jensj/ase/ase (version 3.9.0.3465)
numpy: /home/opt/el6/x3455/numpy-1.7.1-x3455-gfortran-internal-1/lib64/python2.6/site-packages/numpy (version 1.7.1)
scipy: /home/opt/el6/common/scipy-0.7.2-5/lib64/python2.6/site-packages/scipy (version 0.7.2)
units: Angstrom and eV
cores: 1
**NOTE**: please start using occupations=FermiDirac(width).

Memory estimate
---------------
Process memory now: 34.18 MiB
Calculator  18272.17 MiB
    Density  470.21 MiB
        Arrays  163.22 MiB
        Localized functions  269.32 MiB
        Mixer  37.67 MiB
    Hamiltonian  247.55 MiB
        Arrays  106.72 MiB
        XC  0.00 MiB
        Poisson  121.63 MiB
        vbar  19.19 MiB
    Wavefunctions  17554.41 MiB
        Arrays psit_nG  5806.99 MiB
        Eigensolver  5903.69 MiB
        Projectors  30.20 MiB
        Overlap op  5813.52 MiB
