
  ___ ___ ___ _ _ _  
 |   |   |_  | | | | 
 | | | | | . | | | | 
 |__ |  _|___|_____|  21.1.1b1
 |___|_|             

User:   jensj@d021.nifl.fysik.dtu.dk
Date:   Wed Apr  7 19:38:12 2021
Arch:   x86_64
Pid:    24064
Python: 3.8.6
gpaw:   /home/niflheim/jensj/venv2/gpaw/gpaw (674769e569)
_gpaw:  /home/niflheim/jensj/venv2/gpaw/build/lib.linux-x86_64-nehalem-3.8/
        _gpaw.cpython-38-x86_64-linux-gnu.so (457ef9790c)
ase:    /home/niflheim/jensj/venv2/ase/ase (version 3.22.0b1-2fa867face)
numpy:  /home/modules/software/SciPy-bundle/2020.11-foss-2020b/lib/python3.8/site-packages/numpy (version 1.19.4)
scipy:  /home/modules/software/SciPy-bundle/2020.11-foss-2020b/lib/python3.8/site-packages/scipy (version 1.5.4)
libxc:  4.3.4
units:  Angstrom and eV
cores: 8
OpenMP: False
OMP_NUM_THREADS: 1

Input parameters:
  convergence: {bands: 40}
  h: 0.2
  maxiter: 1000
  nbands: 42
  poissonsolver: {remove_moment: 9}

Initialize ...

O-setup:
  name: Oxygen
  id: 9b9d51c344dea68c822856295a461509
  Z: 8.0
  valence: 6
  core: 2
  charge: 0.0
  file: /home/modules/software/GPAW-setups/0.9.20000/O.LDA.gz
  compensation charges: gauss, rc=0.21, lmax=2
  cutoffs: 1.17(filt), 0.83(core),
  valence states:
                energy  radius
    2s(2.00)   -23.752   0.688
    2p(4.00)    -9.195   0.598
    *s           3.459   0.688
    *p          18.016   0.598
    *d           0.000   0.619

  Using partial waves for O as LCAO basis

C-setup:
  name: Carbon
  id: d60576a1f549371a163e72552ca58787
  Z: 6.0
  valence: 4
  core: 2
  charge: 0.0
  file: /home/modules/software/GPAW-setups/0.9.20000/C.LDA.gz
  compensation charges: gauss, rc=0.20, lmax=2
  cutoffs: 1.14(filt), 1.14(core),
  valence states:
                energy  radius
    2s(2.00)   -13.639   0.635
    2p(2.00)    -5.414   0.635
    *s          13.573   0.635
    *p          21.797   0.635
    *d           0.000   0.635

  Using partial waves for C as LCAO basis

H-setup:
  name: Hydrogen
  id: 4766778ce56282eaa64abeb28b7c1de3
  Z: 1.0
  valence: 1
  core: 0
  charge: 0.0
  file: /home/modules/software/GPAW-setups/0.9.20000/H.LDA.gz
  compensation charges: gauss, rc=0.15, lmax=2
  cutoffs: 0.85(filt), 0.53(core),
  valence states:
                energy  radius
    1s(1.00)    -6.353   0.476
    *s          20.858   0.476
    *p           0.000   0.476

  Using partial waves for H as LCAO basis

Reference energy: -5157.089432

Spin-paired calculation

Convergence criteria:
  Maximum total energy change: 0.0005 eV / electron
  Maximum integral of absolute density change: 0.0001 electrons
  Maximum integral of absolute eigenstate change: 4e-08 eV^2
  Maximum number of iterations: 1000

Symmetries present (total): 1

  ( 1  0  0)
  ( 0  1  0)
  ( 0  0  1)

1 k-point (Gamma)
1 k-point in the irreducible part of the Brillouin zone
       k-points in crystal coordinates                weights
   0:     0.00000000    0.00000000    0.00000000          1/1

Wave functions: Uniform real-space grid
  Kinetic energy operator: 6*3+1=19 point O(h^6) finite-difference Laplacian
  ScaLapack parameters: grid=1x1, blocksize=None
  Wavefunction extrapolation:
    Improved wavefunction reuse through dual PAW basis 

<gpaw.occupations.ZeroWidth object at 0x2b32364f0df0>
Eigensolver
   Davidson(niter=2) 

Densities:
  Coarse grid: 100*92*92 grid
  Fine grid: 200*184*184 grid
  Total Charge: 0.000000 

Density mixing:
  Method: separate
  Backend: pulay
  Linear mixing parameter: 0.25
  Mixing with 3 old densities
  No damping of long wave oscillations 

Hamiltonian:
  XC and Coulomb potentials evaluated on a 200*184*184 grid
  Using the LDA Exchange-Correlation functional
  Interpolation: tri-quintic (5. degree polynomial)
  Poisson solver: FastPoissonSolver using
    Stencil: 6*3+1=19 point O(h^6) finite-difference Laplacian
    FFT axes: []
    FST axes: [1, 2, 0]
    Remove moments up to L=9 

Memory estimate:
  Process memory now: 184.60 MiB
  Calculator: 106.19 MiB
    Density: 25.33 MiB
      Arrays: 20.28 MiB
      Localized functions: 0.51 MiB
      Mixer: 4.54 MiB
    Hamiltonian: 13.31 MiB
      Arrays: 13.27 MiB
      XC: 0.00 MiB
      Poisson: 0.00 MiB
      vbar: 0.04 MiB
    Wavefunctions: 67.56 MiB
      Arrays psit_nG: 31.80 MiB
      Eigensolver: 35.72 MiB
      Projections: 0.00 MiB
      Projectors: 0.05 MiB

Total number of cores used: 8
Domain decomposition: 2 x 2 x 2

Number of atoms: 10
Number of atomic orbitals: 22
Number of bands in calculation: 42
Number of valence electrons: 24
Bands to converge: 40

... initialized

Initializing position-dependent things.

Creating initial wave functions:
  22 bands from LCAO basis set
  20 bands from random numbers

            .------------------------------------------------.  
           /|                                                |  
          / |                                                |  
         /  |                                                |  
        /   |                                                |  
       /    |                                                |  
      /     |                                                |  
     /      |                                                |  
    /       |                                                |  
   /        |                                                |  
  /         |                                                |  
 *          |                                                |  
 |          |                                                |  
 |          |                                                |  
 |          |                                                |  
 |          |                                                |  
 |          |              H   H    H                        |  
 |          |               C  C  C                          |  
 |          |             H      OH                          |  
 |          |               H                                |  
 |          |                                                |  
 |          |                                                |  
 |          |                                                |  
 |          .------------------------------------------------.  
 |         /                                                /   
 |        /                                                /    
 |       /                                                /     
 |      /                                                /      
 |     /                                                /       
 |    /                                                /        
 |   /                                                /         
 |  /                                                /          
 | /                                                /           
 |/                                                /            
 *------------------------------------------------*             

Positions:
   0 O     10.888600    8.043700    8.961900    ( 0.0000,  0.0000,  0.0000)
   1 C      8.569700    8.928100    9.059300    ( 0.0000,  0.0000,  0.0000)
   2 H      8.672600    9.158500    8.000000    ( 0.0000,  0.0000,  0.0000)
   3 H      8.006300    8.000000    9.154200    ( 0.0000,  0.0000,  0.0000)
   4 H      8.000000    9.724500    9.539500    ( 0.0000,  0.0000,  0.0000)
   5 C      9.922700    8.786900    9.694500    ( 0.0000,  0.0000,  0.0000)
   6 H      9.921000    8.562900   10.757200    ( 0.0000,  0.0000,  0.0000)
   7 C     11.110200    9.436700    9.148600    ( 0.0000,  0.0000,  0.0000)
   8 H     11.023300   10.041900    8.253500    ( 0.0000,  0.0000,  0.0000)
   9 H     11.939900    9.691100    9.797400    ( 0.0000,  0.0000,  0.0000)

Unit cell:
           periodic     x           y           z      points  spacing
  1. axis:    no    19.939900    0.000000    0.000000   100     0.1994
  2. axis:    no     0.000000   18.041900    0.000000    92     0.1961
  3. axis:    no     0.000000    0.000000   18.757200    92     0.2039

  Lengths:  19.939900  18.041900  18.757200
  Angles:   90.000000  90.000000  90.000000

Effective grid spacing dv^(1/3) = 0.1998

                     log10-error:    total        iterations:
           time      wfs    density  energy       poisson
iter:   1  19:38:18  +3.14          -58.114333    1      
iter:   2  19:38:21  +2.44          -58.303896           
iter:   3  19:38:23  +2.26          -58.328592           
iter:   4  19:38:25  +2.08          -58.334634           
iter:   5  19:38:28  +1.92          -58.336359           
iter:   6  19:38:30  +1.78          -58.336887           
iter:   7  19:38:32  +1.67          -58.337056           
iter:   8  19:38:34  +1.56          -58.337113           
iter:   9  19:38:37  +1.47          -58.337132           
iter:  10  19:38:39  +1.38          -58.337139           
iter:  11  19:38:41  +1.29          -58.337142           
iter:  12  19:38:44  +1.22          -58.337143           
iter:  13  19:38:46  +1.14          -58.337143           
iter:  14  19:38:48  +1.07          -58.337143           
iter:  15  19:38:51  +1.01          -58.337143           
iter:  16  19:38:53  +0.94          -58.337143           
iter:  17  19:38:55  +0.88          -58.337143           
iter:  18  19:38:57  +0.81          -58.337143           
iter:  19  19:39:00  +0.75          -58.337143           
iter:  20  19:39:02  +0.68          -58.337143           
iter:  21  19:39:04  +0.62          -58.337143           
iter:  22  19:39:07  +0.56          -58.337143           
iter:  23  19:39:09  +0.50          -58.337143           
iter:  24  19:39:11  +0.44          -58.337143           
iter:  25  19:39:13  +0.38          -58.337143           
iter:  26  19:39:16  +0.32          -58.337143           
iter:  27  19:39:18  +0.26          -58.337143           
iter:  28  19:39:20  +0.21          -58.337143           
iter:  29  19:39:23  +0.15          -58.337143           
iter:  30  19:39:25  +0.10          -58.337143           
iter:  31  19:39:27  +0.05          -58.337143           
iter:  32  19:39:30  -0.00          -58.337143           
iter:  33  19:39:32  -0.06          -58.337143           
iter:  34  19:39:34  -0.10          -58.337143           
iter:  35  19:39:37  -0.15          -58.337143           
iter:  36  19:39:39  -0.20          -58.337143           
iter:  37  19:39:41  -0.25          -58.337143           
iter:  38  19:39:43  -0.29          -58.337143           
iter:  39  19:39:46  -0.33          -58.337143           
iter:  40  19:39:48  -0.38          -58.337143           
iter:  41  19:39:50  -0.42          -58.337143           
iter:  42  19:39:53  -0.46          -58.337143           
iter:  43  19:39:55  -0.50          -58.337143           
iter:  44  19:39:57  -0.53          -58.337143           
iter:  45  19:40:00  -0.57          -58.337143           
iter:  46  19:40:02  -0.61          -58.337143           
iter:  47  19:40:04  -0.64          -58.337143           
iter:  48  19:40:06  -0.68          -58.337143           
iter:  49  19:40:09  -0.71          -58.337143           
iter:  50  19:40:11  -0.74          -58.337143           
iter:  51  19:40:13  -0.77          -58.337143           
iter:  52  19:40:16  -0.80          -58.337143           
iter:  53  19:40:18  -0.83          -58.337143           
iter:  54  19:40:20  -0.86          -58.337143           
iter:  55  19:40:23  -0.88          -58.337143           
iter:  56  19:40:25  -0.89          -58.337143           
iter:  57  19:40:27  -0.93          -58.337143           
iter:  58  19:40:30  -0.95          -58.337143           
iter:  59  19:40:32  -0.96          -58.337143           
iter:  60  19:40:34  -0.95          -58.337143           
iter:  61  19:40:36  -0.96          -58.337143           
iter:  62  19:40:39  -1.00          -58.337143           
iter:  63  19:40:41  -1.03          -58.337143           
iter:  64  19:40:43  -1.05          -58.337143           
iter:  65  19:40:46  -1.07          -58.337143           
iter:  66  19:40:48  -1.07          -58.337143           
iter:  67  19:40:50  -1.09          -58.337143           
iter:  68  19:40:53  -1.08          -58.337143           
iter:  69  19:40:55  -1.11          -58.337143           
iter:  70  19:40:57  -1.15          -58.337143           
iter:  71  19:41:00  -1.18          -58.337143           
iter:  72  19:41:02  -1.21          -58.337143           
iter:  73  19:41:04  -1.23          -58.337143           
iter:  74  19:41:06  -1.25          -58.337143           
iter:  75  19:41:09  -1.27          -58.337143           
iter:  76  19:41:11  -1.29          -58.337143           
iter:  77  19:41:13  -1.30          -58.337143           
iter:  78  19:41:16  -1.34          -58.337143           
iter:  79  19:41:18  -1.36          -58.337143           
iter:  80  19:41:20  -1.39          -58.337143           
iter:  81  19:41:23  -1.42          -58.337143           
iter:  82  19:41:25  -1.44          -58.337143           
iter:  83  19:41:27  -1.45          -58.337143           
iter:  84  19:41:29  -1.46          -58.337143           
iter:  85  19:41:32  -1.49          -58.337143           
iter:  86  19:41:34  -1.53          -58.337143           
iter:  87  19:41:36  -1.53          -58.337143           
iter:  88  19:41:39  -1.57          -58.337143           
iter:  89  19:41:41  -1.59          -58.337143           
iter:  90  19:41:43  -1.62          -58.337143           
iter:  91  19:41:46  -1.65          -58.337143           
iter:  92  19:41:48  -1.67          -58.337143           
iter:  93  19:41:50  -1.70          -58.337143           
iter:  94  19:41:53  -1.71          -58.337143           
iter:  95  19:41:55  -1.74          -58.337143           
iter:  96  19:41:57  -1.75          -58.337143           
iter:  97  19:41:59  -1.77          -58.337143           
iter:  98  19:42:02  -1.79          -58.337143           
iter:  99  19:42:04  -1.81          -58.337143           
iter: 100  19:42:06  -1.83          -58.337143           
iter: 101  19:42:09  -1.85          -58.337143           
iter: 102  19:42:11  -1.86          -58.337143           
iter: 103  19:42:13  -1.89          -58.337143           
iter: 104  19:42:16  -1.90          -58.337143           
iter: 105  19:42:18  -1.92          -58.337143           
iter: 106  19:42:20  -1.94          -58.337143           
iter: 107  19:42:23  -1.96          -58.337143           
iter: 108  19:42:25  -1.97          -58.337143           
iter: 109  19:42:27  -1.99          -58.337143           
iter: 110  19:42:29  -2.01          -58.337143           
iter: 111  19:42:32  -2.03          -58.337143           
iter: 112  19:42:34  -2.05          -58.337143           
iter: 113  19:42:36  -2.07          -58.337143           
iter: 114  19:42:39  -2.08          -58.337143           
iter: 115  19:42:41  -2.10          -58.337143           
iter: 116  19:42:43  -2.12          -58.337143           
iter: 117  19:42:46  -2.14          -58.337143           
iter: 118  19:42:48  -2.16          -58.337143           
iter: 119  19:42:50  -2.18          -58.337143           
iter: 120  19:42:53  -2.20          -58.337143           
iter: 121  19:42:55  -2.22          -58.337143           
iter: 122  19:42:57  -2.23          -58.337143           
iter: 123  19:42:59  -2.25          -58.337143           
iter: 124  19:43:02  -2.27          -58.337143           
iter: 125  19:43:04  -2.29          -58.337143           
iter: 126  19:43:06  -2.31          -58.337143           
iter: 127  19:43:09  -2.33          -58.337143           
iter: 128  19:43:11  -2.34          -58.337143           
iter: 129  19:43:13  -2.36          -58.337143           
iter: 130  19:43:16  -2.38          -58.337143           
iter: 131  19:43:18  -2.40          -58.337143           
iter: 132  19:43:20  -2.42          -58.337143           
iter: 133  19:43:23  -2.44          -58.337143           
iter: 134  19:43:25  -2.45          -58.337143           
iter: 135  19:43:27  -2.47          -58.337143           
iter: 136  19:43:29  -2.49          -58.337143           
iter: 137  19:43:32  -2.51          -58.337143           
iter: 138  19:43:34  -2.53          -58.337143           
iter: 139  19:43:36  -2.55          -58.337143           
iter: 140  19:43:39  -2.56          -58.337143           
iter: 141  19:43:41  -2.58          -58.337143           
iter: 142  19:43:43  -2.60          -58.337143           
iter: 143  19:43:46  -2.62          -58.337143           
iter: 144  19:43:48  -2.64          -58.337143           
iter: 145  19:43:50  -2.65          -58.337143           
iter: 146  19:43:53  -2.67          -58.337143           
iter: 147  19:43:55  -2.69          -58.337143           
iter: 148  19:43:57  -2.71          -58.337143           
iter: 149  19:43:59  -2.73          -58.337143           
iter: 150  19:44:02  -2.75          -58.337143           
iter: 151  19:44:04  -2.76          -58.337143           
iter: 152  19:44:06  -2.78          -58.337143           
iter: 153  19:44:09  -2.80          -58.337143           
iter: 154  19:44:11  -2.82          -58.337143           
iter: 155  19:44:13  -2.84          -58.337143           
iter: 156  19:44:16  -2.86          -58.337143           
iter: 157  19:44:18  -2.87          -58.337143           
iter: 158  19:44:20  -2.89          -58.337143           
iter: 159  19:44:23  -2.91          -58.337143           
iter: 160  19:44:25  -2.93          -58.337143           
iter: 161  19:44:27  -2.95          -58.337143           
iter: 162  19:44:29  -2.97          -58.337143           
iter: 163  19:44:32  -2.98          -58.337143           
iter: 164  19:44:34  -3.00          -58.337143           
iter: 165  19:44:36  -3.02          -58.337143           
iter: 166  19:44:39  -3.04          -58.337143           
iter: 167  19:44:41  -3.06          -58.337143           
iter: 168  19:44:43  -3.07          -58.337143           
iter: 169  19:44:46  -3.09          -58.337143           
iter: 170  19:44:48  -3.11          -58.337143           
iter: 171  19:44:50  -3.13          -58.337143           
iter: 172  19:44:52  -3.15          -58.337143           
iter: 173  19:44:55  -3.16          -58.337143           
iter: 174  19:44:57  -3.18          -58.337143           
iter: 175  19:44:59  -3.20          -58.337143           
iter: 176  19:45:02  -3.22          -58.337143           
iter: 177  19:45:04  -3.23          -58.337143           
iter: 178  19:45:06  -3.25          -58.337143           
iter: 179  19:45:09  -3.27          -58.337143           
iter: 180  19:45:11  -3.28          -58.337143           
iter: 181  19:45:13  -3.30          -58.337143           
iter: 182  19:45:16  -3.32          -58.337143           
iter: 183  19:45:18  -3.34          -58.337143           
iter: 184  19:45:20  -3.35          -58.337143           
iter: 185  19:45:22  -3.37          -58.337143           
iter: 186  19:45:25  -3.39          -58.337143           
iter: 187  19:45:27  -3.41          -58.337143           
iter: 188  19:45:29  -3.42          -58.337143           
iter: 189  19:45:32  -3.44          -58.337143           
iter: 190  19:45:34  -3.46          -58.337143           
iter: 191  19:45:36  -3.47          -58.337143           
iter: 192  19:45:39  -3.49          -58.337143           
iter: 193  19:45:41  -3.51          -58.337143           
iter: 194  19:45:43  -3.53          -58.337143           
iter: 195  19:45:45  -3.54          -58.337143           
iter: 196  19:45:48  -3.56          -58.337143           
iter: 197  19:45:50  -3.58          -58.337143           
iter: 198  19:45:52  -3.59          -58.337143           
iter: 199  19:45:55  -3.61          -58.337143           
iter: 200  19:45:57  -3.63          -58.337143           
iter: 201  19:45:59  -3.64          -58.337143           
iter: 202  19:46:02  -3.66          -58.337143           
iter: 203  19:46:04  -3.68          -58.337143           
iter: 204  19:46:06  -3.69          -58.337143           
iter: 205  19:46:09  -3.71          -58.337143           
iter: 206  19:46:11  -3.73          -58.337143           
iter: 207  19:46:13  -3.74          -58.337143           
iter: 208  19:46:15  -3.76          -58.337143           
iter: 209  19:46:18  -3.78          -58.337143           
iter: 210  19:46:20  -3.80          -58.337143           
iter: 211  19:46:22  -3.81          -58.337143           
iter: 212  19:46:25  -3.83          -58.337143           
iter: 213  19:46:27  -3.85          -58.337143           
iter: 214  19:46:29  -3.86          -58.337143           
iter: 215  19:46:32  -3.88          -58.337143           
iter: 216  19:46:34  -3.90          -58.337143           
iter: 217  19:46:36  -3.91          -58.337143           
iter: 218  19:46:38  -3.93          -58.337143           
iter: 219  19:46:41  -3.94          -58.337143           
iter: 220  19:46:43  -3.96          -58.337143           
iter: 221  19:46:45  -3.98          -58.337143           
iter: 222  19:46:48  -3.99          -58.337143           
iter: 223  19:46:50  -4.01          -58.337143           
iter: 224  19:46:52  -4.03          -58.337143           
iter: 225  19:46:55  -4.04          -58.337143           
iter: 226  19:46:57  -4.06          -58.337143           
iter: 227  19:46:59  -4.07          -58.337143           
iter: 228  19:47:02  -4.09          -58.337143           
iter: 229  19:47:04  -4.11          -58.337143           
iter: 230  19:47:06  -4.12          -58.337143           
iter: 231  19:47:08  -4.14          -58.337143           
iter: 232  19:47:11  -4.16          -58.337143           
iter: 233  19:47:13  -4.17          -58.337143           
iter: 234  19:47:15  -4.19          -58.337143           
iter: 235  19:47:18  -4.20          -58.337143           
iter: 236  19:47:20  -4.23          -58.337143           
iter: 237  19:47:22  -4.24          -58.337143           
iter: 238  19:47:25  -4.25          -58.337143           
iter: 239  19:47:27  -4.27          -58.337143           
iter: 240  19:47:29  -4.29          -58.337143           
iter: 241  19:47:31  -4.30          -58.337143           
iter: 242  19:47:34  -4.33          -58.337143           
iter: 243  19:47:36  -4.34          -58.337143           
iter: 244  19:47:38  -4.36          -58.337143           
iter: 245  19:47:41  -4.36          -58.337143           
iter: 246  19:47:43  -4.38          -58.337143           
iter: 247  19:47:45  -4.39          -58.337143           
iter: 248  19:47:48  -4.41          -58.337143           
iter: 249  19:47:50  -4.43          -58.337143           
iter: 250  19:47:52  -4.45          -58.337143           
iter: 251  19:47:55  -4.47          -58.337143           
iter: 252  19:47:57  -4.49          -58.337143           
iter: 253  19:47:59  -4.51          -58.337143           
iter: 254  19:48:01  -4.52          -58.337143           
iter: 255  19:48:04  -4.53          -58.337143           
iter: 256  19:48:06  -4.57          -58.337143           
iter: 257  19:48:08  -4.59          -58.337143           
iter: 258  19:48:11  -4.60          -58.337143           
iter: 259  19:48:13  -4.61          -58.337143           
iter: 260  19:48:15  -4.61          -58.337143           
iter: 261  19:48:18  -4.64          -58.337143           
iter: 262  19:48:20  -4.66          -58.337143           
iter: 263  19:48:22  -4.68          -58.337143           
iter: 264  19:48:24  -4.68          -58.337143           
iter: 265  19:48:27  -4.72          -58.337143           
iter: 266  19:48:29  -4.72          -58.337143           
iter: 267  19:48:31  -4.73          -58.337143           
iter: 268  19:48:34  -4.75          -58.337143           
iter: 269  19:48:36  -4.76          -58.337143           
iter: 270  19:48:38  -4.77          -58.337143           
iter: 271  19:48:41  -4.76          -58.337143           
iter: 272  19:48:43  -4.77          -58.337143           
iter: 273  19:48:45  -4.79          -58.337143           
iter: 274  19:48:47  -4.80          -58.337143           
iter: 275  19:48:50  -4.81          -58.337143           
iter: 276  19:48:52  -4.85          -58.337143           
iter: 277  19:48:54  -4.84          -58.337143           
iter: 278  19:48:57  -4.88          -58.337143           
iter: 279  19:48:59  -4.91          -58.337143           
iter: 280  19:49:01  -4.93          -58.337143           
iter: 281  19:49:04  -4.94          -58.337143           
iter: 282  19:49:06  -4.93          -58.337143           
iter: 283  19:49:08  -4.99          -58.337143           
iter: 284  19:49:10  -4.99          -58.337143           
iter: 285  19:49:13  -5.02          -58.337143           
iter: 286  19:49:15  -5.03          -58.337143           
iter: 287  19:49:17  -5.02          -58.337143           
iter: 288  19:49:20  -5.05          -58.337143           
iter: 289  19:49:22  -5.09          -58.337143           
iter: 290  19:49:24  -5.11          -58.337143           
iter: 291  19:49:27  -5.13          -58.337143           
iter: 292  19:49:29  -5.16          -58.337143           
iter: 293  19:49:31  -5.17          -58.337143           
iter: 294  19:49:34  -5.18          -58.337143           
iter: 295  19:49:36  -5.20          -58.337143           
iter: 296  19:49:38  -5.21          -58.337143           
iter: 297  19:49:40  -5.23          -58.337143           
iter: 298  19:49:43  -5.22          -58.337143           
iter: 299  19:49:45  -5.22          -58.337143           
iter: 300  19:49:47  -5.24          -58.337143           
iter: 301  19:49:50  -5.23          -58.337143           
iter: 302  19:49:52  -5.26          -58.337143           
iter: 303  19:49:54  -5.28          -58.337143           
iter: 304  19:49:57  -5.28          -58.337143           
iter: 305  19:49:59  -5.29          -58.337143           
iter: 306  19:50:01  -5.33          -58.337143           
iter: 307  19:50:03  -5.36          -58.337143           
iter: 308  19:50:06  -5.37          -58.337143           
iter: 309  19:50:08  -5.38          -58.337143           
iter: 310  19:50:10  -5.41          -58.337143           
iter: 311  19:50:13  -5.43          -58.337143           
iter: 312  19:50:15  -5.46          -58.337143           
iter: 313  19:50:17  -5.46          -58.337143           
iter: 314  19:50:20  -5.49          -58.337143           
iter: 315  19:50:22  -5.50          -58.337143           
iter: 316  19:50:24  -5.54          -58.337143           
iter: 317  19:50:26  -5.55          -58.337143           
iter: 318  19:50:29  -5.56          -58.337143           
iter: 319  19:50:31  -5.58          -58.337143           
iter: 320  19:50:33  -5.62          -58.337143           
iter: 321  19:50:36  -5.63          -58.337143           
iter: 322  19:50:38  -5.66          -58.337143           
iter: 323  19:50:40  -5.69          -58.337143           
iter: 324  19:50:43  -5.70          -58.337143           
iter: 325  19:50:45  -5.72          -58.337143           
iter: 326  19:50:47  -5.71          -58.337143           
iter: 327  19:50:50  -5.71          -58.337143           
iter: 328  19:50:52  -5.72          -58.337143           
iter: 329  19:50:54  -5.76          -58.337143           
iter: 330  19:50:56  -5.78          -58.337143           
iter: 331  19:50:59  -5.80          -58.337143           
iter: 332  19:51:01  -5.80          -58.337143           
iter: 333  19:51:03  -5.82          -58.337143           
iter: 334  19:51:06  -5.83          -58.337143           
iter: 335  19:51:08  -5.86          -58.337143           
iter: 336  19:51:10  -5.87          -58.337143           
iter: 337  19:51:13  -5.87          -58.337143           
iter: 338  19:51:15  -5.84          -58.337143           
iter: 339  19:51:17  -5.88          -58.337143           
iter: 340  19:51:19  -5.90          -58.337143           
iter: 341  19:51:22  -5.89          -58.337143           
iter: 342  19:51:24  -5.94          -58.337143           
iter: 343  19:51:26  -5.96          -58.337143           
iter: 344  19:51:29  -5.96          -58.337143           
iter: 345  19:51:31  -5.98          -58.337143           
iter: 346  19:51:33  -5.99          -58.337143           
iter: 347  19:51:36  -6.03          -58.337143           
iter: 348  19:51:38  -6.06          -58.337143           
iter: 349  19:51:40  -6.06          -58.337143           
iter: 350  19:51:42  -6.07          -58.337143           
iter: 351  19:51:45  -6.05          -58.337143           
iter: 352  19:51:47  -6.12          -58.337143           
iter: 353  19:51:49  -6.11          -58.337143           
iter: 354  19:51:52  -6.18          -58.337143           
iter: 355  19:51:54  -6.20          -58.337143           
iter: 356  19:51:56  -6.21          -58.337143           
iter: 357  19:51:59  -6.23          -58.337143           
iter: 358  19:52:01  -6.25          -58.337143           
iter: 359  19:52:03  -6.26          -58.337143           
iter: 360  19:52:06  -6.28          -58.337143           
iter: 361  19:52:08  -6.30          -58.337143           
iter: 362  19:52:10  -6.32          -58.337143           
iter: 363  19:52:12  -6.35          -58.337143           
iter: 364  19:52:15  -6.32          -58.337143           
iter: 365  19:52:17  -6.34          -58.337143           
iter: 366  19:52:19  -6.37          -58.337143           
iter: 367  19:52:22  -6.39          -58.337143           
iter: 368  19:52:24  -6.44          -58.337143           
iter: 369  19:52:26  -6.42          -58.337143           
iter: 370  19:52:29  -6.43          -58.337143           
iter: 371  19:52:31  -6.45          -58.337143           
iter: 372  19:52:33  -6.42          -58.337143           
iter: 373  19:52:35  -6.45          -58.337143           
iter: 374  19:52:38  -6.48          -58.337143           
iter: 375  19:52:40  -6.49          -58.337143           
iter: 376  19:52:42  -6.49          -58.337143           
iter: 377  19:52:45  -6.57          -58.337143           
iter: 378  19:52:47  -6.57          -58.337143           
iter: 379  19:52:49  -6.63          -58.337143           
iter: 380  19:52:52  -6.63          -58.337143           
iter: 381  19:52:54  -6.62          -58.337143           
iter: 382  19:52:56  -6.62          -58.337143           
iter: 383  19:52:58  -6.66          -58.337143           
iter: 384  19:53:01  -6.67          -58.337143           
iter: 385  19:53:03  -6.72          -58.337143           
iter: 386  19:53:05  -6.71          -58.337143           
iter: 387  19:53:08  -6.71          -58.337143           
iter: 388  19:53:10  -6.73          -58.337143           
iter: 389  19:53:12  -6.75          -58.337143           
iter: 390  19:53:15  -6.80          -58.337143           
iter: 391  19:53:17  -6.83          -58.337143           
iter: 392  19:53:19  -6.86          -58.337143           
iter: 393  19:53:22  -6.84          -58.337143           
iter: 394  19:53:24  -6.82          -58.337143           
iter: 395  19:53:26  -6.85          -58.337143           
iter: 396  19:53:28  -6.86          -58.337143           
iter: 397  19:53:31  -6.93          -58.337143           
iter: 398  19:53:33  -6.95          -58.337143           
iter: 399  19:53:35  -6.95          -58.337143           
iter: 400  19:53:38  -6.96          -58.337143           
iter: 401  19:53:40  -6.93          -58.337143           
iter: 402  19:53:42  -6.94          -58.337143           
iter: 403  19:53:45  -6.99          -58.337143           
iter: 404  19:53:47  -7.00          -58.337143           
iter: 405  19:53:49  -6.98          -58.337143           
iter: 406  19:53:51  -6.98          -58.337143           
iter: 407  19:53:54  -7.04          -58.337143           
iter: 408  19:53:56  -7.03          -58.337143           
iter: 409  19:53:58  -7.04          -58.337143           
iter: 410  19:54:01  -7.04          -58.337143           
iter: 411  19:54:03  -7.05          -58.337143           
iter: 412  19:54:05  -7.04          -58.337143           
iter: 413  19:54:08  -7.11          -58.337143           
iter: 414  19:54:10  -7.13          -58.337143           
iter: 415  19:54:12  -7.14          -58.337143           
iter: 416  19:54:14  -7.14          -58.337143           
iter: 417  19:54:17  -7.16          -58.337143           
iter: 418  19:54:19  -7.17          -58.337143           
iter: 419  19:54:21  -7.22          -58.337143           
iter: 420  19:54:24  -7.26          -58.337143           
iter: 421  19:54:26  -7.25          -58.337143           
iter: 422  19:54:28  -7.24          -58.337143           
iter: 423  19:54:31  -7.19          -58.337143           
iter: 424  19:54:33  -7.27          -58.337143           
iter: 425  19:54:35  -7.29          -58.337143           
iter: 426  19:54:37  -7.29          -58.337143           
iter: 427  19:54:40  -7.33          -58.337143           
iter: 428  19:54:42  -7.36          -58.337143           
iter: 429  19:54:44  -7.39          -58.337143           
iter: 430  19:54:47  -7.38          -58.337143           
iter: 431  19:54:49  -7.44          -58.337143           

Converged after 431 iterations.

Dipole moment: (-0.173215, 0.322554, 0.132486) |e|*Ang

Energy contributions relative to reference atoms: (reference = -5157.089432)

Kinetic:        +61.596980
Potential:      -65.875699
External:        +0.000000
XC:             -55.043627
Entropy (-ST):   +0.000000
Local:           +0.985203
--------------------------
Free energy:    -58.337143
Extrapolated:   -58.337143

 Band  Eigenvalues  Occupancy
    0    -27.01684    2.00000
    1    -18.44358    2.00000
    2    -16.21613    2.00000
    3    -14.70939    2.00000
    4    -12.66138    2.00000
    5    -11.68439    2.00000
    6    -10.60330    2.00000
    7     -9.93510    2.00000
    8     -9.26324    2.00000
    9     -8.94170    2.00000
   10     -7.44985    2.00000
   11     -6.29526    2.00000
   12     -0.43775    0.00000
   13      0.01845    0.00000
   14      0.03453    0.00000
   15      0.14067    0.00000
   16      0.63631    0.00000
   17      0.67821    0.00000
   18      0.71377    0.00000
   19      0.82988    0.00000
   20      0.86534    0.00000
   21      0.90683    0.00000
   22      1.00434    0.00000
   23      1.02512    0.00000
   24      1.06549    0.00000
   25      1.19626    0.00000
   26      1.27747    0.00000
   27      1.34996    0.00000
   28      1.37359    0.00000
   29      1.41483    0.00000
   30      1.43999    0.00000
   31      1.47051    0.00000
   32      1.53497    0.00000
   33      1.58404    0.00000
   34      1.63794    0.00000
   35      1.66528    0.00000
   36      1.71123    0.00000
   37      1.79165    0.00000
   38      1.83837    0.00000
   39      1.86016    0.00000
   40      1.89781    0.00000
   41      1.99248    0.00000

Fermi level: -3.16114

Gap: 5.858 eV
Transition (v -> c):
  (s=0, k=0, n=11, [0.00, 0.00, 0.00]) -> (s=0, k=0, n=12, [0.00, 0.00, 0.00])
Writing to unocc.gpw (mode='all')

Timing:                              incl.     excl.
-----------------------------------------------------------
Hamiltonian:                         1.643     0.000   0.0% |
 Atomic:                             0.016     0.001   0.0% |
  XC Correction:                     0.015     0.015   0.0% |
 Calculate atomic Hamiltonians:      0.002     0.002   0.0% |
 Communicate:                        0.010     0.010   0.0% |
 Hartree integrate/restrict:         0.026     0.026   0.0% |
 Initialize Hamiltonian:             0.000     0.000   0.0% |
 Poisson:                            1.482     1.201   0.1% |
  Communicate from 1D:               0.025     0.025   0.0% |
  Communicate from 2D:               0.059     0.059   0.0% |
  Communicate to 1D:                 0.071     0.071   0.0% |
  Communicate to 2D:                 0.024     0.024   0.0% |
  FFT 1D:                            0.033     0.033   0.0% |
  FFT 2D:                            0.068     0.068   0.0% |
 XC 3D grid:                         0.102     0.102   0.0% |
 vbar:                               0.006     0.006   0.0% |
LCAO initialization:                 0.243     0.178   0.0% |
 LCAO eigensolver:                   0.008     0.000   0.0% |
  Calculate projections:             0.000     0.000   0.0% |
  DenseAtomicCorrection:             0.000     0.000   0.0% |
  Distribute overlap matrix:         0.001     0.001   0.0% |
  Orbital Layouts:                   0.002     0.002   0.0% |
  Potential matrix:                  0.004     0.004   0.0% |
 LCAO to grid:                       0.036     0.036   0.0% |
 Set positions (LCAO WFS):           0.020     0.003   0.0% |
  Basic WFS set positions:           0.001     0.001   0.0% |
  Basis functions set positions:     0.000     0.000   0.0% |
  P tci:                             0.008     0.008   0.0% |
  ST tci:                            0.003     0.003   0.0% |
  mktci:                             0.005     0.005   0.0% |
Redistribute:                        0.000     0.000   0.0% |
SCF-cycle:                         993.002     0.355   0.0% |
 Davidson:                         992.525   315.975  31.6% |------------|
  Apply hamiltonian:                79.579    79.579   8.0% |--|
  Subspace diag:                   161.833     0.047   0.0% |
   calc_h_matrix:                  103.259    26.666   2.7% ||
    Apply hamiltonian:              76.593    76.593   7.7% |--|
   diagonalize:                      3.723     3.723   0.4% |
   rotate_psi:                      54.805    54.805   5.5% |-|
  calc. matrices:                  333.296   179.804  18.0% |------|
   Apply hamiltonian:              153.492   153.492  15.4% |-----|
  diagonalize:                       1.902     1.902   0.2% |
  rotate_psi:                       99.940    99.940  10.0% |---|
 Orthonormalize:                     0.122     0.000   0.0% |
  calc_s_matrix:                     0.033     0.033   0.0% |
  inverse-cholesky:                  0.005     0.005   0.0% |
  projections:                       0.002     0.002   0.0% |
  rotate_psi_s:                      0.081     0.081   0.0% |
Set symmetry:                        0.001     0.001   0.0% |
Other:                               5.020     5.020   0.5% |
-----------------------------------------------------------
Total:                                       999.909 100.0%

Memory usage: 313.41 MiB
Date: Wed Apr  7 19:54:52 2021
