
  ___ ___ ___ _ _ _  
 |   |   |_  | | | | 
 | | | | | . | | | | 
 |__ |  _|___|_____|  1.5.2b1
 |___|_|             

User:   asbra@fjorm.fysik.dtu.dk
Date:   Mon Jan 28 11:13:45 2019
Arch:   x86_64
Pid:    30491
Python: 3.6.6
gpaw:   /home/niflheim/asbra/gpaw/gpaw (df4605b626)
_gpaw:  /home/niflheim/asbra/gpaw/build/lib.linux-x86_64-nehalem-el7-3.6/
        _gpaw.cpython-36m-x86_64-linux-gnu.so (df4605b626)
ase:    /home/niflheim/asbra/ase/ase (version 3.18.0b1-bf81b6c76b)
numpy:  /home/modules/software/Python/3.6.6-foss-2018b/lib/python3.6/site-packages/numpy-1.15.0-py3.6-linux-x86_64.egg/numpy (version 1.15.0)
scipy:  /home/modules/software/Python/3.6.6-foss-2018b/lib/python3.6/site-packages/scipy-1.1.0-py3.6-linux-x86_64.egg/scipy (version 1.1.0)
units:  Angstrom and eV
cores:  1

Input parameters:
  kpts: [8 8 8]
  mode: {ecut: 100.0,
         gammacentered: False,
         name: pw}
  occupations: {name: fermi-dirac,
                width: 0.01}
  random: True
  xc: PBE

System changes: positions, numbers, cell, pbc, initial_charges, initial_magmoms 

Initialize ...

Si-setup:
  name: Silicon
  id: ee77bee481871cc2cb65ac61239ccafa
  Z: 14
  valence: 4
  core: 10
  charge: 0.0
  file: /home/modules/software/GPAW-setups/0.9.20000/Si.PBE.gz
  cutoffs: 1.06(comp), 1.86(filt), 2.06(core), lmax=2
  valence states:
                energy  radius
    3s(2.00)   -10.812   1.058
    3p(2.00)    -4.081   1.058
    *s          16.399   1.058
    *p          23.130   1.058
    *d           0.000   1.058

  Using partial waves for Si as LCAO basis

Reference energy: -15772.688500

Spin-paired calculation

Occupation numbers:
  Fermi-Dirac: width=0.0100 eV

Convergence criteria:
  Maximum total energy change: 0.0005 eV / electron
  Maximum integral of absolute density change: 0.0001 electrons
  Maximum integral of absolute eigenstate change: 4e-08 eV^2
  Maximum number of iterations: 333

Symmetries present (total): 24

  ( 1  0  0)  ( 1  0  0)  ( 1  0 -1)  ( 1  0 -1)  ( 1 -1  0)  ( 1 -1  0)
  ( 0  1  0)  ( 0  0  1)  ( 0  1 -1)  ( 0  0 -1)  ( 0 -1  1)  ( 0 -1  0)
  ( 0  0  1)  ( 0  1  0)  ( 0  0 -1)  ( 0  1 -1)  ( 0 -1  0)  ( 0 -1  1)

  ( 0  1  0)  ( 0  1  0)  ( 0  1 -1)  ( 0  1 -1)  ( 0  0  1)  ( 0  0  1)
  ( 1  0  0)  ( 0  0  1)  ( 1  0 -1)  ( 0  0 -1)  ( 1  0  0)  ( 0  1  0)
  ( 0  0  1)  ( 1  0  0)  ( 0  0 -1)  ( 1  0 -1)  ( 0  1  0)  ( 1  0  0)

  ( 0  0 -1)  ( 0  0 -1)  ( 0 -1  1)  ( 0 -1  1)  ( 0 -1  0)  ( 0 -1  0)
  ( 1  0 -1)  ( 0  1 -1)  ( 1 -1  0)  ( 0 -1  0)  ( 1 -1  0)  ( 0 -1  1)
  ( 0  1 -1)  ( 1  0 -1)  ( 0 -1  0)  ( 1 -1  0)  ( 0 -1  1)  ( 1 -1  0)

  (-1  1  0)  (-1  1  0)  (-1  0  1)  (-1  0  1)  (-1  0  0)  (-1  0  0)
  (-1  0  1)  (-1  0  0)  (-1  1  0)  (-1  0  0)  (-1  1  0)  (-1  0  1)
  (-1  0  0)  (-1  0  1)  (-1  0  0)  (-1  1  0)  (-1  0  1)  (-1  1  0)
Note: your k-points are not as symmetric as your crystal!

512 k-points: 8 x 8 x 8 Monkhorst-Pack grid
60 k-points in the irreducible part of the Brillouin zone
       k-points in crystal coordinates                weights
   0:     0.06250000    0.06250000   -0.06250000          6/512
   1:     0.06250000    0.06250000    0.06250000          2/512
   2:     0.18750000   -0.06250000   -0.06250000          6/512
   3:     0.18750000    0.06250000   -0.18750000         12/512
   4:     0.18750000    0.06250000   -0.06250000         12/512
   5:     0.18750000    0.06250000    0.06250000          6/512
   6:     0.18750000    0.18750000   -0.18750000          6/512
   7:     0.18750000    0.18750000   -0.06250000          6/512
   8:     0.18750000    0.18750000    0.06250000          6/512
   9:     0.18750000    0.18750000    0.18750000          2/512
          ...
  59:     0.43750000    0.43750000    0.43750000          2/512

Wave functions: Plane wave expansion
  Cutoff energy: 100.000 eV
  Number of coefficients (min, max): 85, 97
  Pulay-stress correction: 0.000000 eV/Ang^3 (de/decut=0.000000)
  Using FFTW library
  ScaLapack parameters: grid=1x1, blocksize=None
  Wavefunction extrapolation:
    Improved wavefunction reuse through dual PAW basis 

Eigensolver
   Davidson(niter=2, smin=None, normalize=True) 

Densities:
  Coarse grid: 7*7*7 grid
  Fine grid: 14*14*14 grid
  Total Charge: 0.000000 

Density mixing:
  Method: separate
  Backend: pulay
  Linear mixing parameter: 0.05
  Mixing with 5 old densities
  Damping of long wave oscillations: 50 

Hamiltonian:
  XC and Coulomb potentials evaluated on a 14*14*14 grid
  Using the PBE Exchange-Correlation functional
 

XC parameters: PBE with 2 nearest neighbor stencil

Memory estimate:
  Process memory now: 49.11 MiB
  Calculator: 1.80 MiB
    Density: 0.14 MiB
      Arrays: 0.07 MiB
      Localized functions: 0.05 MiB
      Mixer: 0.03 MiB
    Hamiltonian: 0.05 MiB
      Arrays: 0.04 MiB
      XC: 0.00 MiB
      Poisson: 0.00 MiB
      vbar: 0.00 MiB
    Wavefunctions: 1.61 MiB
      Arrays psit_nG: 0.71 MiB
      Eigensolver: 0.03 MiB
      Projections: 0.19 MiB
      Projectors: 0.58 MiB
      PW-descriptor: 0.10 MiB

Total number of cores used: 1

Number of atoms: 2
Number of atomic orbitals: 8
Number of bands in calculation: 8
Bands to converge: occupied states only
Number of valence electrons: 8

... initialized

Initializing position-dependent things.

Density initialized from atomic densities
Creating initial wave functions:
  8 bands from LCAO basis set

                    
                    
                    
                    
           Si       
                    
       Si           
                    
                    
                    
                    

Positions:
   0 Si     0.000000    0.000000    0.000000    ( 0.0000,  0.0000,  0.0000)
   1 Si     1.357500    1.357500    1.357500    ( 0.0000,  0.0000,  0.0000)

Unit cell:
           periodic     x           y           z      points  spacing
  1. axis:    yes    0.000000    2.715000    2.715000     7     0.4479
  2. axis:    yes    2.715000    0.000000    2.715000     7     0.4479
  3. axis:    yes    2.715000    2.715000    0.000000     7     0.4479

  Lengths:   3.839590   3.839590   3.839590
  Angles:   60.000000  60.000000  60.000000

Effective grid spacing dv^(1/3) = 0.4887

                     log10-error:    total        iterations:
           time      wfs    density  energy       fermi  poisson
iter:   1  11:13:47  +0.86   +inf   -10.699634    0             
iter:   2  11:13:48  -2.57  -0.80   -10.694102    0             
iter:   3  11:13:48  -1.51  -0.81   -10.763736    2             
iter:   4  11:13:49  -2.99  -0.86   -10.662101    10            
iter:   5  11:13:50  -4.27  -1.19   -10.655437    0             
iter:   6  11:13:50  -2.65  -1.25   -10.615358    10            
iter:   7  11:13:51  -4.46  -2.28   -10.615591    0             
iter:   8  11:13:52  -6.20  -2.90   -10.615574    0             
iter:   9  11:13:52  -6.30  -2.87   -10.615552    0             
iter:  10  11:13:53  -8.16  -3.97   -10.615556    0             
iter:  11  11:13:53  -7.79  -4.40   -10.615550    0             

Converged after 11 iterations.

Dipole moment: (-2.973887, -2.973887, -2.973887) |e|*Ang

Energy contributions relative to reference atoms: (reference = -15772.688500)

Kinetic:        +16.106758
Potential:      -14.575947
External:        +0.000000
XC:             -12.616792
Entropy (-ST):   -0.000000
Local:           +0.470432
--------------------------
Free energy:    -10.615550
Extrapolated:   -10.615550

Fermi level: 5.79572

Showing only first 2 kpts
 Kpt  Band  Eigenvalues  Occupancy
  0     2      4.86209    0.02344
  0     3      5.03744    0.02344
  0     4      7.79911    0.00000
  0     5      8.43289    0.00000

  1     2      5.31198    0.00781
  1     3      5.31787    0.00781
  1     4      8.03984    0.00000
  1     5      8.08155    0.00000


Gap: 0.806 eV
Transition (v -> c):
  (s=0, k=1, n=3, [0.062, 0.062, 0.062]) -> (s=0, k=55, n=4, [0.438, 0.438, -0.062])
Writing to test.gpw (mode='all')

Timing:                              incl.     excl.
-----------------------------------------------------------
Hamiltonian:                         0.125     0.000   0.0% |
 Atomic:                             0.122     0.001   0.0% |
  XC Correction:                     0.121     0.121   1.2% |
 Calculate atomic Hamiltonians:      0.000     0.000   0.0% |
 Communicate:                        0.000     0.000   0.0% |
 Initialize Hamiltonian:             0.000     0.000   0.0% |
 Poisson:                            0.000     0.000   0.0% |
 XC 3D grid:                         0.003     0.003   0.0% |
LCAO initialization:                 0.879     0.039   0.4% |
 LCAO eigensolver:                   0.209     0.003   0.0% |
  Calculate projections:             0.002     0.002   0.0% |
  DenseAtomicCorrection:             0.007     0.007   0.1% |
  Distribute overlap matrix:         0.001     0.001   0.0% |
  Orbital Layouts:                   0.006     0.006   0.1% |
  Potential matrix:                  0.005     0.005   0.0% |
  Sum over cells:                    0.186     0.186   1.8% ||
 LCAO to grid:                       0.146     0.146   1.4% ||
 Set positions (LCAO WFS):           0.484     0.079   0.8% |
  Basic WFS set positions:           0.003     0.003   0.0% |
  Basis functions set positions:     0.000     0.000   0.0% |
  P tci:                             0.120     0.120   1.2% |
  ST tci:                            0.253     0.253   2.5% ||
  mktci:                             0.030     0.030   0.3% |
PWDescriptor:                        0.013     0.013   0.1% |
SCF-cycle:                           6.430     0.167   1.6% ||
 Davidson:                           4.816     1.342  13.2% |----|
  Apply H:                           0.891     0.684   6.7% |--|
   HMM T:                            0.207     0.207   2.0% ||
  Subspace diag:                     0.635     0.052   0.5% |
   calc_h_matrix:                    0.445     0.147   1.4% ||
    Apply H:                         0.298     0.229   2.3% ||
     HMM T:                          0.070     0.070   0.7% |
   diagonalize:                      0.081     0.081   0.8% |
   rotate_psi:                       0.057     0.057   0.6% |
  calc. matrices:                    1.543     0.954   9.4% |---|
   Apply H:                          0.589     0.451   4.5% |-|
    HMM T:                           0.138     0.138   1.4% ||
  diagonalize:                       0.323     0.323   3.2% ||
  rotate_psi:                        0.082     0.082   0.8% |
 Density:                            0.152     0.000   0.0% |
  Atomic density matrices:           0.048     0.048   0.5% |
  Mix:                               0.010     0.010   0.1% |
  Multipole moments:                 0.002     0.002   0.0% |
  Pseudo density:                    0.093     0.087   0.9% |
   Symmetrize density:               0.006     0.006   0.1% |
 Hamiltonian:                        1.259     0.003   0.0% |
  Atomic:                            1.224     0.007   0.1% |
   XC Correction:                    1.217     1.217  12.0% |----|
  Calculate atomic Hamiltonians:     0.004     0.004   0.0% |
  Communicate:                       0.000     0.000   0.0% |
  Poisson:                           0.001     0.001   0.0% |
  XC 3D grid:                        0.027     0.027   0.3% |
 Orthonormalize:                     0.036     0.005   0.1% |
  calc_s_matrix:                     0.009     0.009   0.1% |
  inverse-cholesky:                  0.009     0.009   0.1% |
  projections:                       0.010     0.010   0.1% |
  rotate_psi_s:                      0.002     0.002   0.0% |
Set symmetry:                        0.055     0.055   0.5% |
Other:                               2.633     2.633  26.0% |---------|
-----------------------------------------------------------
Total:                                        10.135 100.0%

Date: Mon Jan 28 11:13:55 2019
