
  ___ ___ ___ _ _ _  
 |   |   |_  | | | | 
 | | | | | . | | | | 
 |__ |  _|___|_____|  1.5.2b1
 |___|_|             

User:   asbra@fjorm.fysik.dtu.dk
Date:   Thu Mar 14 10:58:33 2019
Arch:   x86_64
Pid:    2695
Python: 3.6.6
gpaw:   /home/niflheim/asbra/gpaw/gpaw (93dedc0b2f)
_gpaw:  /home/niflheim/asbra/gpaw/build/lib.linux-x86_64-nehalem-el7-3.6/
        _gpaw.cpython-36m-x86_64-linux-gnu.so (4b578371f0)
ase:    /home/niflheim/asbra/ase/ase (version 3.18.0b1-bf81b6c76b)
numpy:  /home/modules/software/Python/3.6.6-foss-2018b/lib/python3.6/site-packages/numpy-1.15.0-py3.6-linux-x86_64.egg/numpy (version 1.15.0)
scipy:  /home/modules/software/Python/3.6.6-foss-2018b/lib/python3.6/site-packages/scipy-1.1.0-py3.6-linux-x86_64.egg/scipy (version 1.1.0)
libxc:  3.0.1
units:  Angstrom and eV
cores:  1

Input parameters:
  basis: dzp
  kpts: {gamma: True,
         size: (4, 4, 4)}
  mode: {ecut: 250.0,
         force_complex_dtype: True,
         gammacentered: False,
         name: pw}
  occupations: {name: fermi-dirac,
                width: 0.01}
  random: True
  xc: PBE

System changes: positions, numbers, cell, pbc, initial_charges, initial_magmoms 

Initialize ...

Si-setup:
  name: Silicon
  id: ee77bee481871cc2cb65ac61239ccafa
  Z: 14
  valence: 4
  core: 10
  charge: 0.0
  file: /home/modules/software/GPAW-setups/0.9.20000/Si.PBE.gz
  cutoffs: 1.06(comp), 1.86(filt), 2.06(core), lmax=2
  valence states:
                energy  radius
    3s(2.00)   -10.812   1.058
    3p(2.00)    -4.081   1.058
    *s          16.399   1.058
    *p          23.130   1.058
    *d           0.000   1.058

  LCAO basis set for Si:
    Name: dzp
    File: /home/modules/software/GPAW-setups/0.9.20000/Si.dzp.basis.gz
    Number of radial functions: 5
    Number of spherical harmonics: 13
      l=0, rc=6.8594 Bohr: 3s-sz confined orbital
      l=1, rc=9.0625 Bohr: 3p-sz confined orbital
      l=0, rc=3.8906 Bohr: 3s-dz split-valence wave
      l=1, rc=5.2344 Bohr: 3p-dz split-valence wave
      l=2, rc=9.0625 Bohr: d-type Gaussian polarization

Reference energy: -15772.688500

Spin-paired calculation

Occupation numbers:
  Fermi-Dirac: width=0.0100 eV

Convergence criteria:
  Maximum total energy change: 0.0005 eV / electron
  Maximum integral of absolute density change: 0.0001 electrons
  Maximum integral of absolute eigenstate change: 4e-08 eV^2
  Maximum number of iterations: 333

Symmetries present (total): 24

  ( 1  0  0)  ( 1  0  0)  ( 1  0 -1)  ( 1  0 -1)  ( 1 -1  0)  ( 1 -1  0)
  ( 0  1  0)  ( 0  0  1)  ( 0  1 -1)  ( 0  0 -1)  ( 0 -1  1)  ( 0 -1  0)
  ( 0  0  1)  ( 0  1  0)  ( 0  0 -1)  ( 0  1 -1)  ( 0 -1  0)  ( 0 -1  1)

  ( 0  1  0)  ( 0  1  0)  ( 0  1 -1)  ( 0  1 -1)  ( 0  0  1)  ( 0  0  1)
  ( 1  0  0)  ( 0  0  1)  ( 1  0 -1)  ( 0  0 -1)  ( 1  0  0)  ( 0  1  0)
  ( 0  0  1)  ( 1  0  0)  ( 0  0 -1)  ( 1  0 -1)  ( 0  1  0)  ( 1  0  0)

  ( 0  0 -1)  ( 0  0 -1)  ( 0 -1  1)  ( 0 -1  1)  ( 0 -1  0)  ( 0 -1  0)
  ( 1  0 -1)  ( 0  1 -1)  ( 1 -1  0)  ( 0 -1  0)  ( 1 -1  0)  ( 0 -1  1)
  ( 0  1 -1)  ( 1  0 -1)  ( 0 -1  0)  ( 1 -1  0)  ( 0 -1  1)  ( 1 -1  0)

  (-1  1  0)  (-1  1  0)  (-1  0  1)  (-1  0  1)  (-1  0  0)  (-1  0  0)
  (-1  0  1)  (-1  0  0)  (-1  1  0)  (-1  0  0)  (-1  1  0)  (-1  0  1)
  (-1  0  0)  (-1  0  1)  (-1  0  0)  (-1  1  0)  (-1  0  1)  (-1  1  0)

64 k-points: 4 x 4 x 4 Monkhorst-Pack grid + [1/8,1/8,1/8]
8 k-points in the irreducible part of the Brillouin zone
       k-points in crystal coordinates                weights
   0:     0.00000000    0.00000000    0.00000000          1/64
   1:     0.25000000    0.25000000    0.00000000          6/64
   2:     0.25000000    0.25000000    0.25000000          8/64
   3:     0.50000000    0.25000000   -0.25000000          6/64
   4:     0.50000000    0.25000000    0.25000000         12/64
   5:     0.50000000    0.50000000    0.00000000          3/64
   6:     0.50000000    0.50000000    0.25000000         24/64
   7:     0.50000000    0.50000000    0.50000000          4/64

Wave functions: Plane wave expansion
  Cutoff energy: 250.000 eV
  Number of coefficients (min, max): 339, 368
  Pulay-stress correction: 0.000000 eV/Ang^3 (de/decut=0.000000)
  Using FFTW library
  ScaLapack parameters: grid=1x1, blocksize=None
  Wavefunction extrapolation:
    Improved wavefunction reuse through dual PAW basis 

Eigensolver
   Davidson(niter=2, smin=None, normalize=True) 

Densities:
  Coarse grid: 12*12*12 grid
  Fine grid: 24*24*24 grid
  Total Charge: 0.000000 

Density mixing:
  Method: separate
  Backend: pulay
  Linear mixing parameter: 0.05
  Mixing with 5 old densities
  Damping of long wave oscillations: 50 

Hamiltonian:
  XC and Coulomb potentials evaluated on a 24*24*24 grid
  Using the PBE Exchange-Correlation functional
 

XC parameters: PBE with 2 nearest neighbor stencil

Memory estimate:
  Process memory now: 50.81 MiB
  Calculator: 1.82 MiB
    Density: 0.71 MiB
      Arrays: 0.34 MiB
      Localized functions: 0.23 MiB
      Mixer: 0.13 MiB
    Hamiltonian: 0.23 MiB
      Arrays: 0.22 MiB
      XC: 0.00 MiB
      Poisson: 0.00 MiB
      vbar: 0.00 MiB
    Wavefunctions: 0.88 MiB
      Arrays psit_nG: 0.36 MiB
      Eigensolver: 0.08 MiB
      Projections: 0.03 MiB
      Projectors: 0.31 MiB
      PW-descriptor: 0.11 MiB

Total number of cores used: 1

Number of atoms: 2
Number of atomic orbitals: 26
Number of bands in calculation: 8
Bands to converge: occupied states only
Number of valence electrons: 8

... initialized

Initializing position-dependent things.

Density initialized from atomic densities
Creating initial wave functions:
  8 bands from LCAO basis set

                    
                    
                    
                    
           Si       
                    
       Si           
                    
                    
                    
                    

Positions:
   0 Si     0.000000    0.000000    0.000000    ( 0.0000,  0.0000,  0.0000)
   1 Si     1.357500    1.357500    1.357500    ( 0.0000,  0.0000,  0.0000)

Unit cell:
           periodic     x           y           z      points  spacing
  1. axis:    yes    0.000000    2.715000    2.715000    12     0.2613
  2. axis:    yes    2.715000    0.000000    2.715000    12     0.2613
  3. axis:    yes    2.715000    2.715000    0.000000    12     0.2613

  Lengths:   3.839590   3.839590   3.839590
  Angles:   60.000000  60.000000  60.000000

Effective grid spacing dv^(1/3) = 0.2851

                     log10-error:    total        iterations:
           time      wfs    density  energy       fermi  poisson
iter:   1  10:58:35  -0.32   +inf   -10.644830    0             
iter:   2  10:58:36  -3.00  -0.79   -10.638953    1             
iter:   3  10:58:36  -1.81  -0.81   -10.615701    1             
iter:   4  10:58:36  -3.18  -1.47   -10.613367    0             
iter:   5  10:58:36  -4.61  -1.49   -10.608636    0             
iter:   6  10:58:36  -3.13  -1.54   -10.599146    0             
iter:   7  10:58:37  -4.96  -2.42   -10.599089    0             
iter:   8  10:58:37  -4.85  -2.51   -10.599048    0             
iter:   9  10:58:37  -5.87  -2.79   -10.599010    0             
iter:  10  10:58:37  -7.24  -3.92   -10.599010    0             
iter:  11  10:58:38  -7.67  -4.08   -10.599011    0             

Converged after 11 iterations.

Dipole moment: (-2.887598, -2.887598, -2.887598) |e|*Ang

Energy contributions relative to reference atoms: (reference = -15772.688500)

Kinetic:        +16.179809
Potential:      -13.897742
External:        +0.000000
XC:             -12.840621
Entropy (-ST):   -0.000000
Local:           -0.040458
--------------------------
Free energy:    -10.599011
Extrapolated:   -10.599011

Fermi level: 5.78769

Showing only first 2 kpts
 Kpt  Band  Eigenvalues  Occupancy
  0     2      5.36102    0.03125
  0     3      5.36102    0.03125
  0     4      7.90143    0.00000
  0     5      7.90144    0.00000

  1     2      3.45911    0.18750
  1     3      3.45912    0.18750
  1     4      6.47294    0.00000
  1     5      8.47353    0.00000


Gap: 0.689 eV
Transition (v -> c):
  (s=0, k=0, n=3, [0.000, 0.000, 0.000]) -> (s=0, k=5, n=4, [0.500, 0.500, 0.000])
Writing to test.gpw (mode='all')

Timing:                              incl.     excl.
-----------------------------------------------------------
Hamiltonian:                         0.136     0.000   0.0% |
 Atomic:                             0.122     0.001   0.0% |
  XC Correction:                     0.122     0.122   2.7% ||
 Calculate atomic Hamiltonians:      0.001     0.001   0.0% |
 Communicate:                        0.000     0.000   0.0% |
 Initialize Hamiltonian:             0.000     0.000   0.0% |
 Poisson:                            0.000     0.000   0.0% |
 XC 3D grid:                         0.012     0.012   0.3% |
LCAO initialization:                 0.756     0.130   2.8% ||
 LCAO eigensolver:                   0.173     0.001   0.0% |
  Calculate projections:             0.000     0.000   0.0% |
  DenseAtomicCorrection:             0.001     0.001   0.0% |
  Distribute overlap matrix:         0.000     0.000   0.0% |
  Orbital Layouts:                   0.004     0.004   0.1% |
  Potential matrix:                  0.135     0.135   3.0% ||
  Sum over cells:                    0.032     0.032   0.7% |
 LCAO to grid:                       0.152     0.152   3.3% ||
 Set positions (LCAO WFS):           0.301     0.045   1.0% |
  Basic WFS set positions:           0.003     0.003   0.1% |
  Basis functions set positions:     0.000     0.000   0.0% |
  P tci:                             0.051     0.051   1.1% |
  ST tci:                            0.142     0.142   3.1% ||
  mktci:                             0.060     0.060   1.3% ||
PWDescriptor:                        0.017     0.017   0.4% |
SCF-cycle:                           2.271     0.012   0.3% |
 Davidson:                           0.824     0.219   4.8% |-|
  Apply H:                           0.175     0.144   3.2% ||
   HMM T:                            0.031     0.031   0.7% |
  Subspace diag:                     0.113     0.007   0.2% |
   calc_h_matrix:                    0.081     0.022   0.5% |
    Apply H:                         0.059     0.049   1.1% |
     HMM T:                          0.011     0.011   0.2% |
   diagonalize:                      0.012     0.012   0.3% |
   rotate_psi:                       0.013     0.013   0.3% |
  calc. matrices:                    0.255     0.139   3.0% ||
   Apply H:                          0.116     0.096   2.1% ||
    HMM T:                           0.020     0.020   0.4% |
  diagonalize:                       0.041     0.041   0.9% |
  rotate_psi:                        0.021     0.021   0.4% |
 Density:                            0.078     0.000   0.0% |
  Atomic density matrices:           0.016     0.016   0.3% |
  Mix:                               0.015     0.015   0.3% |
  Multipole moments:                 0.002     0.002   0.0% |
  Pseudo density:                    0.045     0.020   0.4% |
   Symmetrize density:               0.025     0.025   0.5% |
 Hamiltonian:                        1.352     0.003   0.1% |
  Atomic:                            1.221     0.007   0.2% |
   XC Correction:                    1.214     1.214  26.5% |----------|
  Calculate atomic Hamiltonians:     0.007     0.007   0.1% |
  Communicate:                       0.000     0.000   0.0% |
  Poisson:                           0.001     0.001   0.0% |
  XC 3D grid:                        0.119     0.119   2.6% ||
 Orthonormalize:                     0.006     0.001   0.0% |
  calc_s_matrix:                     0.001     0.001   0.0% |
  inverse-cholesky:                  0.001     0.001   0.0% |
  projections:                       0.002     0.002   0.0% |
  rotate_psi_s:                      0.001     0.001   0.0% |
Set symmetry:                        0.022     0.022   0.5% |
Other:                               1.373     1.373  30.0% |-----------|
-----------------------------------------------------------
Total:                                         4.574 100.0%

Date: Thu Mar 14 10:58:38 2019
