20
Lattice="20.27909865320759 0.0 0.0 0.0 20.194227899817882 0.0 0.0 0.0 24.238478373740524" Properties=species:S:1:pos:R:3:magmoms:R:1 energy=-128.80117597214567 dipole="6.016048366334884e-14 8.648069526606396e-14 0.45606466144580454" magmom=-1.6765558975898102e-14 free_energy=-128.80117597214567 pbc="F F F"
C       10.13954933      10.09711395      12.38421108      -0.00000000
C       11.34646202      10.09711395      13.07460199       0.00000000
C        8.93263664      10.09711395      13.07460199      -0.00000000
C       10.13954933      10.09711395      15.16101197      -0.00000000
C       11.34465495      10.09711395      14.46510328      -0.00000000
C        8.93444370      10.09711395      14.46510328       0.00000000
C       10.13954933      11.21630306      10.16939448      -0.00000000
C       10.13954933       8.97792484      10.16939448      -0.00000000
C       10.13954933      10.80761594       8.85675649       0.00000000
C       10.13954933       9.38661196       8.85675649       0.00000000
N       10.13954933      10.09711395      10.96513494       0.00000000
H       12.26979504      10.09711395      12.51888639      -0.00000000
H        8.00930362      10.09711395      12.51888639      -0.00000000
H       12.27909865      10.09711395      15.00190089      -0.00000000
H        8.00000000      10.09711395      15.00190089      -0.00000000
H       10.13954933      10.09711395      16.23847837       0.00000000
H       10.13954933      12.19422790      10.60962753      -0.00000000
H       10.13954933       8.00000000      10.60962753      -0.00000000
H       10.13954933      11.45309491       8.00000000      -0.00000000
H       10.13954933       8.74113299       8.00000000      -0.00000000
