<UPF version="2.0.1">
  <PP_INFO>
    Generated by new atomic code, or converted to UPF format
    Author: 
    Generation date: 
    Pseudopotential type: NC
    Element: H
    Functional: SLA  PW   PBE  PBE
    Suggested minimum cutoff for wavefunctions:   0. Ry
    Suggested minimum cutoff for charge density:   0. Ry
    The Pseudo was generated with a Non-Relativistic Calculation
    L component and cutoff radius for Local Potential:  0   0.0000
    Valence configuration: 
    nl pn  l   occ       Rcut    Rcut US       E pseu
    S   1  0  0.00      0.000      0.000     0.000000
    P   2  1  1.00      0.000      0.000     0.000000
    Generation configuration: not available.
  </PP_INFO>
    <!-- END OF HUMAN READABLE SECTION -->
  <PP_HEADER 
generated="Generated by new atomic code, or converted to UPF format" 
author="" 
date="" 
comment="" 
element="H" 
pseudo_type="NC" 
relativistic="no" 
is_ultrasoft="F" 
is_paw="F" 
is_coulomb="F" 
has_so="F" 
has_wfc="F" 
has_gipaw="F" 
paw_as_gipaw="F" 
core_correction="F" 
functional="SLA  PW   PBE  PBE" 
z_valence="1.0000000000000000" 
total_psenergy="0.0000000000000000" 
wfc_cutoff="0.0000000000000000" 
rho_cutoff="0.0000000000000000" 
l_max="1" 
l_max_rho="0" 
l_local="0" 
mesh_size="1076" 
number_of_wfc="2" 
number_of_proj="1"/>
  <PP_MESH mesh="1076" dx="1.2999999999999999E-002" xmin="-9.2103403719761818" rmax="117.29118785936451" zmesh="1.0000000000000000">
    <PP_R>
   1.000000000000001E-04   1.013084867359810E-04   1.026340948473443E-04
   1.039770483650158E-04   1.053375742513365E-04   1.067159024384193E-04
   1.081122658670084E-04   1.095269005258466E-04   1.109600454915583E-04
   1.124119429690537E-04   1.138828383324624E-04   1.153729801666012E-04
   1.168826203089871E-04   1.184120138923971E-04   1.199614193879870E-04
   1.215310986489732E-04   1.231213169548869E-04   1.247323430564066E-04
   1.263644492207779E-04   1.280179112778271E-04   1.296930086665773E-04
   1.313900244824740E-04   1.331092455252292E-04   1.348509623472911E-04
   1.366154693029480E-04   1.384030645980752E-04   1.402140503405321E-04
   1.420487325912198E-04   1.439074214158049E-04   1.457904309371228E-04
   1.476980793882645E-04   1.496306891663585E-04   1.515885868870571E-04
   1.535721034397351E-04   1.555815740434109E-04   1.576173383033993E-04
   1.596797402687054E-04   1.617691284901702E-04   1.638858560793760E-04
   1.660302807683233E-04   1.682027649698887E-04   1.704036758390728E-04
   1.726333853350510E-04   1.748922702840350E-04   1.771807124429574E-04
   1.794990985639900E-04   1.818478204599054E-04   1.842272750702937E-04
   1.866378645286475E-04   1.890799962303229E-04   1.915540829013899E-04
   1.940605426683844E-04   1.965997991289728E-04   1.991722814235405E-04
   2.017784243077181E-04   2.044186682258559E-04   2.070934593854600E-04
   2.098032498326027E-04   2.125484975283192E-04   2.153296664260040E-04
   2.181472265498202E-04   2.210016540741348E-04   2.238934314039933E-04
   2.268230472566474E-04   2.297909967441483E-04   2.327977814570238E-04
   2.358439095490468E-04   2.389298958231149E-04   2.420562618182533E-04
   2.452235358977564E-04   2.484322533384819E-04   2.516829564213144E-04
   2.549761945228119E-04   2.583125242080518E-04   2.616925093246916E-04
   2.651167210982608E-04   2.685857382286990E-04   2.721001469881580E-04
   2.756605413200826E-04   2.792675229395890E-04   2.829217014351565E-04
   2.866236943716465E-04   2.903741273946784E-04   2.941736343363581E-04
   2.980228573224023E-04   3.019224468806572E-04   3.058730620510397E-04
   3.098753704969162E-04   3.139300486179400E-04   3.180377816643642E-04
   3.221992638528503E-04   3.264151984837929E-04   3.306862980601791E-04
   3.350132844080028E-04   3.393968887982555E-04   3.438378520705126E-04
   3.483369247581372E-04   3.528948672151212E-04   3.575124497445885E-04
   3.621904527289768E-04   3.669296667619247E-04   3.717308927818834E-04
   3.765949422074777E-04   3.815226370746379E-04   3.865148101755241E-04
   3.915723051992726E-04   3.966959768745798E-04   4.018866911141535E-04
   4.071453251610548E-04   4.124727677369535E-04   4.178699191923249E-04
   4.233376916586106E-04   4.288770092023713E-04   4.344888079814559E-04
   4.401740364032152E-04   4.459336552847830E-04   4.517686380154592E-04
   4.576799707212131E-04   4.636686524313415E-04   4.697356952473069E-04
   4.758821245137856E-04   4.821089789919531E-04   4.884173110350358E-04
   4.948081867661639E-04   5.012826862585468E-04   5.078419037180086E-04
   5.144869476679117E-04   5.212189411364993E-04   5.280390218466905E-04
   5.349483424083578E-04   5.419480705131208E-04   5.490393891316895E-04
   5.562234967137887E-04   5.635016073906978E-04   5.708749511804443E-04
   5.783447741956779E-04   5.859123388542671E-04   5.935789240926507E-04
   6.013458255819811E-04   6.092143559470967E-04   6.171858449883560E-04
   6.252616399063804E-04   6.334431055297320E-04   6.417316245455741E-04
   6.501285977333478E-04   6.586354442015073E-04   6.672536016273529E-04
   6.759845265000017E-04   6.848296943665375E-04   6.937906000813823E-04
   7.028687580589301E-04   7.120657025294849E-04   7.213829877985525E-04
   7.308221885095193E-04   7.403848999097718E-04   7.500727381202973E-04
   7.598873404088102E-04   7.698303654664575E-04   7.799034936881394E-04
   7.901084274565004E-04   8.004468914296361E-04   8.109206328325643E-04
   8.215314217525109E-04   8.322810514380578E-04   8.431713386022072E-04
   8.542041237294098E-04   8.653812713866110E-04   8.767046705383677E-04
   8.881762348660874E-04   8.997979030914455E-04   9.115716393040314E-04
   9.234994332932883E-04   9.355833008847899E-04   9.478252842809205E-04
   9.602274524060097E-04   9.727919012559896E-04   9.855207542526208E-04
   9.984161626023552E-04   1.011480305659897E-03   1.024715391296516E-03
   1.038123656273185E-03   1.051707366618600E-03   1.065468818012138E-03
   1.079410336171840E-03   1.093534277247455E-03   1.107843028218643E-03
   1.122339007298373E-03   1.137024664341613E-03   1.151902481259354E-03
   1.166974972438068E-03   1.182244685164637E-03   1.197714200056856E-03
   1.213386131499560E-03   1.229263128086464E-03   1.245347873067779E-03
   1.261643084803691E-03   1.278151517223768E-03   1.294875960292380E-03
   1.311819240480211E-03   1.328984221241940E-03   1.346373803500170E-03
   1.363990926135691E-03   1.381838566484160E-03   1.399919740839274E-03
   1.418237504962534E-03   1.436794954599676E-03   1.455595226003856E-03
   1.474641496465688E-03   1.493936984850212E-03   1.513484952140891E-03
   1.533288701990722E-03   1.553351581280564E-03   1.573676980684770E-03
   1.594268335244215E-03   1.615129124946829E-03   1.636262875315723E-03
   1.657673158005009E-03   1.679363591403420E-03   1.701337841245827E-03
   1.723599621232752E-03   1.746152693658000E-03   1.769000870044488E-03
   1.792148011788407E-03   1.815598030811805E-03   1.839354890223708E-03
   1.863422604989902E-03   1.887805242611464E-03   1.912506923812189E-03
   1.937531823234988E-03   1.962884170147427E-03   1.988568249156475E-03
   2.014588400932615E-03   2.040949022943428E-03   2.067654570196775E-03
   2.094709555993703E-03   2.122118552691205E-03   2.149886192474959E-03
   2.178017168142179E-03   2.206516233894707E-03   2.235388206142484E-03
   2.264637964317540E-03   2.294270451698625E-03   2.324290676246630E-03
   2.354703711450959E-03   2.385514697186944E-03   2.416728840584513E-03
   2.448351416908186E-03   2.480387770448631E-03   2.512843315425843E-03
   2.545723536904174E-03   2.579033991719308E-03   2.612780309417395E-03
   2.646968193206442E-03   2.681603420920182E-03   2.716691845994532E-03
   2.752239398456846E-03   2.788252085928094E-03   2.824735994638174E-03
   2.861697290454493E-03   2.899142219924018E-03   2.937077111328946E-03
   2.975508375756216E-03   3.014442508180987E-03   3.053886088564308E-03
   3.093845782965138E-03   3.134328344666942E-03   3.175340615318999E-03
   3.216889526092662E-03   3.258982098852744E-03   3.301625447344224E-03
   3.344826778394493E-03   3.388593393131323E-03   3.432932688216771E-03
   3.477852157097241E-03   3.523359391269884E-03   3.569462081565588E-03
   3.616168019448742E-03   3.663485098334015E-03   3.711421314920353E-03
   3.759984770542454E-03   3.809183672539904E-03   3.859026335644242E-03
   3.909521183384157E-03   3.960676749509102E-03   4.012501679431508E-03
   4.065004731687881E-03   4.118194779419013E-03   4.172080811869569E-03
   4.226671935907287E-03   4.281977377562062E-03   4.338006483585164E-03
   4.394768723028867E-03   4.452273688846738E-03   4.510531099514865E-03
   4.569550800674310E-03   4.629342766795047E-03   4.689917102861652E-03
   4.751284046081097E-03   4.813453967612845E-03   4.876437374321610E-03
   4.940244910553023E-03   5.004887359932582E-03   5.070375647188085E-03
   5.136720839995947E-03   5.203934150851660E-03   5.272026938964735E-03
   5.341010712178428E-03   5.410897128914603E-03   5.481698000144022E-03
   5.553425291382437E-03   5.626091124712790E-03   5.699707780833856E-03
   5.774287701135738E-03   5.849843489802477E-03   5.926387915942185E-03
   6.003933915745063E-03   6.082494594669647E-03   6.162083229657654E-03
   6.242713271377829E-03   6.324398346499133E-03   6.407152259993670E-03
   6.490988997469788E-03   6.575922727535660E-03   6.661967804193818E-03
   6.749138769267012E-03   6.837450354855816E-03   6.926917485828384E-03
   7.017555282342790E-03   7.109379062402379E-03   7.202404344444518E-03
   7.296646849963287E-03   7.392122506166425E-03   7.488847448667072E-03
   7.586838024210726E-03   7.686110793437878E-03   7.786682533682810E-03
   7.888570241808992E-03   7.991791137081606E-03   8.096362664077617E-03
   8.202302495633982E-03   8.309628535834383E-03   8.418358923035061E-03
   8.528512032930240E-03   8.640106481657667E-03   8.753161128944784E-03
   8.867695081296064E-03   8.983727695222063E-03   9.101278580510686E-03
   9.220367603541339E-03   9.341014890642358E-03   9.463240831492414E-03
   9.587066082566422E-03   9.712511570626529E-03   9.839598496258787E-03
   9.968348337456110E-03   1.009878285324810E-02   1.023092408737837E-02
   1.036479437202999E-02   1.050041633159970E-02   1.063781288652146E-02
   1.077700725714006E-02   1.091802296763543E-02   1.106088384999829E-02
   1.120561404805777E-02   1.135223802156183E-02   1.150078055031095E-02
   1.165126673834604E-02   1.180372201819105E-02   1.195817215515114E-02
   1.211464325166706E-02   1.227316175172653E-02   1.243375444533335E-02
   1.259644847303497E-02   1.276127133050932E-02   1.292825087321156E-02
   1.309741532108187E-02   1.326879326331456E-02   1.344241366318976E-02
   1.361830586296828E-02   1.379649958885053E-02   1.397702495600030E-02
   1.415991247363431E-02   1.434519305017833E-02   1.453289799849077E-02
   1.472305904115465E-02   1.491570831583880E-02   1.511087838072915E-02
   1.530860222003120E-02   1.550891324954439E-02   1.571184532230946E-02
   1.591743273432971E-02   1.612571023036712E-02   1.633671300981419E-02
   1.655047673264287E-02   1.676703752543111E-02   1.698643198746832E-02
   1.720869719694076E-02   1.743387071719784E-02   1.766199060310044E-02
   1.789309540745220E-02   1.812722418751514E-02   1.836441651161030E-02
   1.860471246580500E-02   1.884815266068745E-02   1.909477823822998E-02
   1.934463087874218E-02   1.959775280791499E-02   1.985418680395688E-02
   2.011397620482353E-02   2.037716491554202E-02   2.064379741563084E-02
   2.091391876661714E-02   2.118757461965215E-02   2.146481122322635E-02
   2.174567543098561E-02   2.203021470964952E-02   2.231847714703340E-02
   2.261051146017526E-02   2.290636700356911E-02   2.320609377750592E-02
   2.350974243652388E-02   2.381736429796907E-02   2.412901135066824E-02
   2.444473626371507E-02   2.476459239537129E-02   2.508863380208446E-02
   2.541691524762356E-02   2.574949221233424E-02   2.608642090251507E-02
   2.642775825991663E-02   2.677356197136474E-02   2.712389047850967E-02
   2.747880298770296E-02   2.783835948000338E-02   2.820262072131391E-02
   2.857164827265130E-02   2.894550450055009E-02   2.932425258760254E-02
   2.970795654313686E-02   3.009668121403478E-02   3.049049229569088E-02
   3.088945634311527E-02   3.129364078218155E-02   3.170311392102191E-02
   3.211794496157139E-02   3.253820401126323E-02   3.296396209487702E-02
   3.339529116654226E-02   3.383226412189867E-02   3.427495481041574E-02
   3.472343804787348E-02   3.517778962900645E-02   3.563808634031326E-02
   3.610440597303369E-02   3.657682733629556E-02   3.705543027043363E-02
   3.754029566048291E-02   3.803150544984834E-02   3.852914265415346E-02
   3.903329137527022E-02   3.954403681553241E-02   4.006146529213506E-02
   4.058566425172224E-02   4.111672228516580E-02   4.165472914253730E-02
   4.219977574827618E-02   4.275195421655606E-02   4.331135786685233E-02
   4.387808123971331E-02   4.445222011273788E-02   4.503387151676209E-02
   4.562313375225761E-02   4.622010640594477E-02   4.682489036762282E-02
   4.743758784722076E-02   4.805830239207094E-02   4.868713890440878E-02
   4.932420365910157E-02   4.996960432160912E-02   5.062344996617952E-02
   5.128585109428291E-02   5.195691965328656E-02   5.263676905537407E-02
   5.332551419671255E-02   5.402327147687015E-02   5.473015881848795E-02
   5.544629568720914E-02   5.617180311186903E-02   5.690680370494915E-02
   5.765142168329910E-02   5.840578288912954E-02   5.917001481127961E-02
   5.994424660676313E-02   6.072860912259631E-02   6.152323491791117E-02
   6.232825828635842E-02   6.314381527880333E-02   6.397004372631876E-02
   6.480708326347882E-02   6.565507535195761E-02   6.651416330443624E-02
   6.738449230882347E-02   6.826620945279251E-02   6.915946374863924E-02
   7.006440615846569E-02   7.098118961969302E-02   7.190996907090816E-02
   7.285090147804896E-02   7.380414586093181E-02   7.476986332012610E-02
   7.574821706418100E-02   7.673937243720784E-02   7.774349694682370E-02
   7.876076029246060E-02   7.979133439404516E-02   8.083539342105342E-02
   8.189311382194588E-02   8.296467435398786E-02   8.405025611345955E-02
   8.515004256626214E-02   8.626421957892377E-02   8.739297545001144E-02
   8.853650094195389E-02   8.969498931328096E-02   9.086863635128474E-02
   9.205764040510803E-02   9.326220241926594E-02   9.448252596760570E-02
   9.571881728771153E-02   9.697128531575903E-02   9.824014172182595E-02
   9.952560094566489E-02   1.008278802329442E-01   1.021471996719630E-01
   1.034837822308465E-01   1.048378537952286E-01   1.062096432064263E-01
   1.075993823001150E-01   1.090073059455094E-01   1.104336520850565E-01
   1.118786617746488E-01   1.133425792243630E-01   1.148256518397324E-01
   1.163281302635589E-01   1.178502684182723E-01   1.193923235488433E-01
   1.209545562662593E-01   1.225372305915679E-01   1.241406140004969E-01
   1.257649774686586E-01   1.274105955173454E-01   1.290777462599242E-01
   1.307667114488383E-01   1.324777765232249E-01   1.342112306571538E-01
   1.359673668084994E-01   1.377464817684511E-01   1.395488762116716E-01
   1.413748547471118E-01   1.432247259694900E-01   1.450988025114457E-01
   1.469974010963752E-01   1.489208425919580E-01   1.508694520643848E-01
   1.528435588332943E-01   1.548434965274292E-01   1.568696031410196E-01
   1.589222210909058E-01   1.610016972744065E-01   1.631083831279462E-01
   1.652426346864483E-01   1.674048126435060E-01   1.695952824123400E-01
   1.718144141875548E-01   1.740625830077023E-01   1.763401688186638E-01
   1.786475565378624E-01   1.809851361193143E-01   1.833533026195325E-01
   1.857524562642920E-01   1.881830025162692E-01   1.906453521435652E-01
   1.931399212891278E-01   1.956671315410800E-01   1.982274100039693E-01
   2.008211893709498E-01   2.034489079969078E-01   2.061110099725453E-01
   2.088079451994323E-01   2.115401694660414E-01   2.143081445247760E-01
   2.171123381700095E-01   2.199532243171421E-01   2.228312830826943E-01
   2.257470008654474E-01   2.287008704286465E-01   2.316933909832782E-01
   2.347250682724387E-01   2.377964146568059E-01   2.409079492012284E-01
   2.440601977624501E-01   2.472536930779805E-01   2.504889748561288E-01
   2.537665898672158E-01   2.570870920359794E-01   2.604510425351892E-01
   2.638590098804862E-01   2.673115700264631E-01   2.708093064640017E-01
   2.743528103188850E-01   2.779426804516985E-01   2.815795235590388E-01
   2.852639542760470E-01   2.889965952802837E-01   2.927780773969627E-01
   2.966090397055618E-01   3.004901296478295E-01   3.044220031372031E-01
   3.084053246696608E-01   3.124407674360222E-01   3.165290134357200E-01
   3.206707535920576E-01   3.248666878689797E-01   3.291175253893658E-01
   3.334239845548743E-01   3.377867931673538E-01   3.422066885518439E-01
   3.466844176811842E-01   3.512207373022552E-01   3.558164140638695E-01
   3.604722246463382E-01   3.651889558927308E-01   3.699674049418543E-01
   3.748083793629712E-01   3.797126972922807E-01   3.846811875711856E-01
   3.897146898863684E-01   3.948140549117006E-01   3.999801444520093E-01
   4.052138315887211E-01   4.105160008274195E-01   4.158875482473255E-01
   4.213293816527380E-01   4.268424207264545E-01   4.324275971851999E-01
   4.380858549370892E-01   4.438181502411496E-01   4.496254518689308E-01
   4.555087412682300E-01   4.614690127289583E-01   4.675072735511788E-01
   4.736245442153419E-01   4.798218585547497E-01   4.861002639302757E-01
   4.924608214073715E-01   4.989046059353896E-01   5.054327065292529E-01
   5.120462264534974E-01   5.187462834087322E-01   5.255340097205294E-01
   5.324105525307912E-01   5.393770739916192E-01   5.464347514617214E-01
   5.535847777053883E-01   5.608283610940726E-01   5.681667258106077E-01
   5.756011120560965E-01   5.831327762595091E-01   5.907629912900220E-01
   5.984930466721360E-01   6.063242488036089E-01   6.142579211762400E-01
   6.222954045995431E-01   6.304380574273468E-01   6.386872557873605E-01
   6.470443938137386E-01   6.555108838826994E-01   6.640881568512157E-01
   6.727776622988340E-01   6.815808687726566E-01   6.904992640355302E-01
   6.995343553174809E-01   7.086876695704397E-01   7.179607537263011E-01
   7.273551749583582E-01   7.368725209461591E-01   7.465144001438277E-01
   7.562824420518971E-01   7.661782974926987E-01   7.762036388893550E-01
   7.863601605484233E-01   7.966495789462376E-01   8.070736330189983E-01
   8.176340844566511E-01   8.283327180006252E-01   8.391713417454536E-01
   8.501517874443458E-01   8.612759108187596E-01   8.725455918720219E-01
   8.839627352070534E-01   8.955292703482517E-01   9.072471520675851E-01
   9.191183607149540E-01   9.311449025528743E-01   9.433288100955410E-01
   9.556721424523277E-01   9.681769856757809E-01   9.808454531141683E-01
   9.936796857686390E-01   1.006681852655058E+00   1.019854151170579E+00
   1.033198807464996E+00   1.046718076816989E+00   1.060414244015253E+00
   1.074289623744645E+00   1.088346560977363E+00   1.102587431369256E+00
   1.117014641661315E+00   1.131630630086418E+00   1.146437866781396E+00
   1.161438854204493E+00   1.176636127558288E+00   1.192032255218147E+00
   1.207629839166291E+00   1.223431515431529E+00   1.239439954534761E+00
   1.255657861940296E+00   1.272087978513086E+00   1.288733080981940E+00
   1.305595982408787E+00   1.322679532664105E+00   1.339986618908549E+00
   1.357520166080887E+00   1.375283137392321E+00   1.393278534827282E+00
   1.411509399650765E+00   1.429978812922320E+00   1.448689896016745E+00
   1.467645811151620E+00   1.486849761921718E+00   1.506304993840428E+00
   1.526014794888248E+00   1.545982496068467E+00   1.566211471970109E+00
   1.586705141338249E+00   1.607466967651787E+00   1.628500459708788E+00
   1.649809172219466E+00   1.671396706406954E+00   1.693266710615911E+00
   1.715422880929100E+00   1.737868961792039E+00   1.760608746645817E+00
   1.783646078568197E+00   1.806984850923105E+00   1.830629008018618E+00
   1.854582545773561E+00   1.878849512392825E+00   1.903434009051527E+00
   1.928340190588116E+00   1.953572266206550E+00   1.979134500187665E+00
   2.005031212609842E+00   2.031266780079119E+00   2.057845636468845E+00
   2.084772273669001E+00   2.112051242345367E+00   2.139687152708577E+00
   2.167684675293256E+00   2.196048541747359E+00   2.224783545631825E+00
   2.253894543230703E+00   2.283386454371874E+00   2.313264263258515E+00
   2.343533019311439E+00   2.374197838022462E+00   2.405263901818932E+00
   2.436736460939569E+00   2.468620834321774E+00   2.500922410500535E+00
   2.533646648519109E+00   2.566799078851606E+00   2.600385304337664E+00
   2.634411001129319E+00   2.668881919650318E+00   2.703803885567935E+00
   2.739182800777528E+00   2.775024644399972E+00   2.811335473792147E+00
   2.848121425570644E+00   2.885388716648865E+00   2.923143645287706E+00
   2.961392592159964E+00   3.000142021428698E+00   3.039398481839682E+00
   3.079168607828159E+00   3.119459120640079E+00   3.160276829468001E+00
   3.201628632601868E+00   3.243521518594830E+00   3.285962567444336E+00
   3.328958951788642E+00   3.372517938119046E+00   3.416646888007910E+00
   3.461353259352798E+00   3.506644607636872E+00   3.552528587205790E+00
   3.599012952561308E+00   3.646105559671807E+00   3.693814367299975E+00
   3.742147438347852E+00   3.791112941219483E+00   3.840719151201396E+00
   3.890974451861144E+00   3.941887336464153E+00   3.993466409409098E+00
   4.045720387682069E+00   4.098658102329764E+00   4.152288499951963E+00
   4.206620644213495E+00   4.261663717376063E+00   4.317427021850039E+00
   4.373919981766603E+00   4.431152144570437E+00   4.489133182633275E+00
   4.547872894888549E+00   4.607381208487436E+00   4.667668180476571E+00
   4.728743999497708E+00   4.790618987509629E+00   4.853303601532575E+00
   4.916808435415512E+00   4.981144221626515E+00   5.046321833066577E+00
   5.112352284907161E+00   5.179246736451788E+00   5.247016493021993E+00
   5.315673007867916E+00   5.385227884103986E+00   5.455692876669832E+00
   5.527079894316912E+00   5.599401001621116E+00   5.672668421021710E+00
   5.746894534886956E+00   5.822091887606764E+00   5.898273187712719E+00
   5.975451310025858E+00   6.053639297832543E+00   6.132850365088810E+00
   6.213097898653554E+00   6.294395460550944E+00   6.376756790262437E+00
   6.460195807048783E+00   6.544726612302410E+00   6.630363491930612E+00
   6.717120918769845E+00   6.805013555031747E+00   6.894056254781040E+00
   6.984264066445911E+00   7.075652235361237E+00   7.168236206345076E+00
   7.262031626308882E+00   7.357054346901871E+00   7.453320427189989E+00
   7.550846136369926E+00   7.649647956518653E+00   7.749742585378934E+00
   7.851146939181281E+00   7.953878155502839E+00   8.057953596163676E+00
   8.163390850160974E+00   8.270207736641609E+00   8.378422307913647E+00
   8.488052852497162E+00   8.599117898215136E+00   8.711636215324642E+00
   8.825626819689074E+00   8.941108975991877E+00   9.058102200992330E+00
   9.176626266823909E+00   9.296701204335839E+00   9.418347306478351E+00
   9.541585131732235E+00   9.666435507583278E+00   9.792919534042154E+00
   9.921058587210378E+00   1.005087432289292E+01   1.018238868025809E+01
   1.031562388554528E+01   1.045060245582132E+01   1.058734720278586E+01
   1.072588123662656E+01   1.086622796992488E+01   1.100841112161279E+01
   1.115245472098134E+01   1.129838311174166E+01   1.144622095613911E+01
   1.159599323912125E+01   1.174772527256040E+01   1.190144269953133E+01
   1.205717149864506E+01   1.221493798843930E+01   1.237476883182632E+01
   1.253669104059907E+01   1.270073197999622E+01   1.286691937332695E+01
   1.303528130665629E+01   1.320584623355169E+01   1.337864297989177E+01
   1.355370074873790E+01   1.373104912526968E+01   1.391071808178485E+01
   1.409273798276470E+01   1.427713959000572E+01   1.446395406781843E+01
   1.465321298829420E+01   1.484494833664106E+01   1.503919251658923E+01
   1.523597835586743E+01   1.543533911175088E+01   1.563730847668181E+01
   1.584192058396361E+01   1.604921001352940E+01   1.625921179778615E+01
   1.647196142753523E+01   1.668749485797042E+01   1.690584851475449E+01
   1.712705930017508E+01   1.735116459938145E+01   1.757820228670257E+01
   1.780821073204797E+01   1.804122880739234E+01   1.827729589334504E+01
   1.851645188580544E+01   1.875873720270549E+01   1.900419279084041E+01
   1.925286013278879E+01   1.950478125392329E+01   1.975999872951297E+01
   2.001855569191864E+01   2.028049583788235E+01   2.054586343591220E+01
   2.081470333376386E+01   2.108706096601993E+01   2.136298236176855E+01
   2.164251415238223E+01   2.192570357939894E+01   2.221259850250587E+01
   2.250324740762785E+01   2.279769941512163E+01   2.309600428807729E+01
   2.339821244072836E+01   2.370437494697193E+01   2.401454354900024E+01
   2.432877066604527E+01   2.464710940323768E+01   2.496961356058175E+01
   2.529633764204765E+01   2.562733686478279E+01   2.596266716844362E+01
   2.630238522464957E+01   2.664654844656071E+01   2.699521499858073E+01
   2.734844380618669E+01   2.770629456588783E+01   2.806882775531427E+01
   2.843610464343789E+01   2.880818730092692E+01   2.918513861063609E+01
   2.956702227823390E+01   2.995390284296911E+01   3.034584568857797E+01
   3.074291705433425E+01   3.114518404624382E+01   3.155271464838577E+01
   3.196557773440180E+01   3.238384307913611E+01   3.280758137042748E+01
   3.323686422105566E+01   3.367176418084416E+01   3.411235474892133E+01
   3.455871038614173E+01   3.501090652767044E+01   3.546901959573169E+01
   3.593312701252430E+01   3.640330721330636E+01   3.687963965965085E+01
   3.736220485287493E+01   3.785108434764481E+01   3.834636076575870E+01
   3.884811781011003E+01   3.935644027883356E+01   3.987141407963634E+01
   4.039312624431641E+01   4.092166494347131E+01   4.145711950139918E+01
   4.199958041119474E+01   4.254913935004286E+01   4.310588919471228E+01
   4.366992403725172E+01   4.424133920089209E+01   4.482023125615608E+01
   4.540669803717886E+01   4.600083865824224E+01   4.660275353052532E+01
   4.721254437907412E+01   4.783031425999340E+01   4.845616757786340E+01
   4.909021010338442E+01   4.973254899125237E+01   5.038329279826811E+01
   5.104255150168387E+01   5.171043651778962E+01   5.238706072074272E+01
   5.307253846164391E+01   5.376698558786288E+01   5.447051946261693E+01
   5.518325898480517E+01   5.590532460910334E+01   5.663683836632053E+01
   5.737792388402277E+01   5.812870640742644E+01   5.888931282056489E+01
   5.965987166773228E+01   6.044051317520779E+01   6.123136927326418E+01
   6.203257361846433E+01   6.284426161624953E+01   6.366657044382329E+01
   6.449963907333465E+01   6.534360829536480E+01   6.619862074272096E+01
   6.706482091454177E+01   6.794235520071803E+01   6.883137190663246E+01
   6.973202127822442E+01   7.064445552738137E+01   7.156882885766309E+01
   7.250529749036248E+01   7.345401969090737E+01   7.441515579560770E+01
   7.538886823875275E+01   7.637532158006296E+01   7.737468253250084E+01
   7.838711999044595E+01   7.941280505823836E+01   8.045191107909579E+01
   8.150461366440891E+01   8.257109072342018E+01   8.365152249329090E+01
   8.474609156956170E+01   8.585498293701180E+01   8.697838400092127E+01
   8.811648461874385E+01   8.926947713219278E+01   9.043755639974702E+01
   9.162091982958296E+01   9.281976741293676E+01   9.403430175790336E+01
   9.526472812367778E+01   9.651125445524438E+01   9.777409141852003E+01
   9.905345243595721E+01   1.003495537226129E+02   1.016626143226893E+02
   1.029928561465531E+02   1.043405040082387E+02   1.057057856634421E+02
   1.070889318480126E+02   1.084901763169477E+02   1.099097558838972E+02
   1.113479104611870E+02   1.128048831003636E+02   1.142809200332706E+02
   1.157762707136629E+02   1.172911878593645E+02
    </PP_R>
    <PP_RAB>
   1.300000000000001E-06   1.317010327567753E-06   1.334243233015476E-06
   1.351701628745206E-06   1.369388465267375E-06   1.387306731699451E-06
   1.405459456271109E-06   1.423849706836005E-06   1.442480591390257E-06
   1.461355258597698E-06   1.480476898322011E-06   1.499848742165816E-06
   1.519474064016832E-06   1.539356180601162E-06   1.559498452043831E-06
   1.579904282436652E-06   1.600577120413530E-06   1.621520459733286E-06
   1.642737839870112E-06   1.664232846611752E-06   1.686009112665505E-06
   1.708070318272162E-06   1.730420191827980E-06   1.753062510514785E-06
   1.776001100938324E-06   1.799239839774977E-06   1.822782654426917E-06
   1.846633523685857E-06   1.870796478405463E-06   1.895275602182596E-06
   1.920075032047438E-06   1.945198959162660E-06   1.970651629531742E-06
   1.996437344716556E-06   2.022560462564342E-06   2.049025397944190E-06
   2.075836623493170E-06   2.102998670372212E-06   2.130516129031888E-06
   2.158393649988203E-06   2.186635944608553E-06   2.215247785907947E-06
   2.244234009355663E-06   2.273599513692454E-06   2.303349261758447E-06
   2.333488281331870E-06   2.364021665978771E-06   2.394954575913817E-06
   2.426292238872418E-06   2.458039950994197E-06   2.490203077718068E-06
   2.522787054688997E-06   2.555797388676646E-06   2.589239658506026E-06
   2.623119516000335E-06   2.657442686936126E-06   2.692214972010980E-06
   2.727442247823836E-06   2.763130467868150E-06   2.799285663538052E-06
   2.835913945147662E-06   2.873021502963752E-06   2.910614608251912E-06
   2.948699614336416E-06   2.987282957673928E-06   3.026371158941310E-06
   3.065970824137608E-06   3.106088645700493E-06   3.146731403637293E-06
   3.187905966670833E-06   3.229619293400265E-06   3.271878433477087E-06
   3.314690528796555E-06   3.358062814704673E-06   3.402002621220991E-06
   3.446517374277391E-06   3.491614596973087E-06   3.537301910846053E-06
   3.583587037161073E-06   3.630477798214657E-06   3.677982118657034E-06
   3.726108026831405E-06   3.774863656130820E-06   3.824257246372656E-06
   3.874297145191230E-06   3.924991809448544E-06   3.976349806663516E-06
   4.028379816459910E-06   4.081090632033219E-06   4.134491161636734E-06
   4.188590430087053E-06   4.243397580289308E-06   4.298921874782328E-06
   4.355172697304037E-06   4.412159554377322E-06   4.469892076916663E-06